Pre-Calc Summary
--------------------------------------------
  date:                Fri Dec 13 00:29:38 GMT 2024
  hostname:            IC-5CD3124HGQ
  system:              Linux IC-5CD3124HGQ 5.15.167.4-microsoft-standard-WSL2 #1 SMP Tue Nov 5 00:21:55 UTC 2024 x86_64 x86_64 x86_64 GNU/Linux
  user:                spica-vir
  input:               /mnt/c/Users/hz1420/Desktop/gfermi/fsurf_graphene.d3
  output:              /mnt/c/Users/hz1420/Desktop/gfermi/fsurf_graphene.out
  temporary directory: /mnt/c/Users/hz1420/Desktop/gfermi/fsurf_graphene_tmpfile
  executable script:   /mnt/c/Users/hz1420/Documents/GitHub/Spica-Vir/HPC-job-submission/PC-Job-Submission/run_job
  executable dir:      module load CRYSTAL/23v1.0.1-intel
  mpi + exe command:   mpiexec -np 8 Pproperties
-------------------------------------------

Find input data: /mnt/c/Users/hz1420/Desktop/gfermi/fsurf_graphene.d3
Find input reference: /mnt/c/Users/hz1420/Desktop/gfermi/ucel.f9
Find input reference: /mnt/c/Users/hz1420/Desktop/gfermi/ucel.f9
All files are synchonised.

Job Ready to Go
-------------------------------------------
  Job name       : fsurf_graphene
  Command        : mpiexec -np 8 Pproperties >> /mnt/c/Users/hz1420/Desktop/gfermi/fsurf_graphene.out 2>&1
  Temporary dir  : /mnt/c/Users/hz1420/Desktop/gfermi/fsurf_graphene_tmpfile
  List of files  : total 232
-rwxrwxrwx 1 spica-vir spica-vir     42 Dec 13 00:29 INPUT
-rwxrwxrwx 1 spica-vir spica-vir   7554 Dec 13 00:29 Job_script_fsurf_graphene
-rwxrwxrwx 1 spica-vir spica-vir 111308 Dec 13 00:29 fort.20
-rwxrwxrwx 1 spica-vir spica-vir 111308 Dec 13 00:29 fort.9
  Input script   :
NEWK
24 48
 1  0
DLV_BAND
1 12 25
END
-------------------------------------------

 PROCESS            0  OF            8  WORKING
 PROCESS            2  OF            8  WORKING
 PROCESS            4  OF            8  WORKING
 PROCESS            1  OF            8  WORKING
 PROCESS            3  OF            8  WORKING
 PROCESS            5  OF            8  WORKING
 PROCESS            7  OF            8  WORKING
 PROCESS            6  OF            8  WORKING

         
 *******************************************************************************
 *                                                                             *
 *                               CRYSTAL22                                     *
 *                      public : 1.0.1 - Jul 29th, 2021                        *
 *                       HTTP://WWW.CRYSTAL.UNITO.IT                           *
 *                                                                             *
 *                              MAIN AUTHORS                                   *
 *                                                                             *
 *  R. DOVESI(1,11), V.R. SAUNDERS(2), C. ROETTI(1,11), R. ORLANDO(1,11),      *
 *  C.M. ZICOVICH-WILSON(1,3), F. PASCALE(4), B. CIVALLERI(1,11),              *
 *  K. DOLL(5), N.M. HARRISON(6), I.J. BUSH(7), Ph. D'ARCO(8),                 *
 *  M. LLUNELL(9), M. CAUSA'(10), Y. NOEL(8), L. MASCHIO(1,11), A. ERBA(1,11)  *
 *  M. RE'RAT(14), S. CASASSA(1,11), B.G. SEARLE(2), J.K. DESMARAIS(1)         *
 *                                                                             *
 *        CONTRIBUTIONS TO THE CODE HAVE ALSO BEEN GIVEN BY                    *
 *                                                                             *
 *  M. FERRABONE(1,11), M. DE LA PIERRE(1,11), M. FERRERO(1,11),               *
 *  J. BAIMA(1,11), E. ALBANESE(1,11), M.F. PEINTINGER(12), R. BAST(13),       *
 *  B. KIRTMAN(15), V. LACIVITA(1,11), R. DEMICHELIS(1,16)                     *
 *  G. BRANDEBURG(17), S. SALUSTRO(1,11), G. SANSONE(1,11)                     *
 *  M.T. RUGGIERO(18), L.E. DAGA(1), L. DONA'(1), A. COSSARD(1)                *
 *                                                                             *
 * (1) THEORETICAL CHEMISTRY GROUP - UNIVERSITA' DI TORINO - TORINO (ITALY)    *
 * (2) SCIENTIFIC COMPUTING DEPARTMENT - STFC DARESBURY (UK)                   *
 * (3) UNIVERSIDAD AUTONOMA DEL ESTADO DE MORELOS - CUERNAVACA (MEXICO)        *
 * (4) UNIVERSITE' DE LORRAINE - NANCY (FRANCE)                                *
 * (5) UNIVERSITAET STUTTGART- STUTTGART (GERMANY)                             *
 * (6) IMPERIAL COLLEGE - LONDON (UK)                                          *
 * (7) SCIENTIFIC COMPUTING DEPARTMENT - STFC RAL (UK)                         *
 * (8) UPMC - SORBONNE UNIVERSITES - PARIS (FRANCE)                            *
 * (9) UNIVERSIDAD DE BARCELONA - BARCELONA (SPAIN)                            *
 *(10) UNIVERSITA' DI NAPOLI "FEDERICO II" - NAPOLI (ITALY)                    *
 *(11) NIS - NANOSTRUCTURED INTERFACES AND SURFACES - TORINO (ITALY)           *
 *(12) MPI FUER CHEMISCHE ENERGIEKONVERSION - MUELHEIM AN DER RUHR (GERMANY)   *
 *(13) UNIVERSITY OF TROMSO - TROMSO (NORWAY)                                  *
 *(14) UNIVERSITE' DE PAU ET DES PAYS DE L'ADOUR - PAU (FRANCE)                *
 *(15) UNIVERSITY OF CALIFORNIA SANTA BARBARA - SANTA BARBARA (USA)            *
 *(16) CURTIN UNIVERSITY - PERTH (AUSTRALIA)                                   *
 *(17) UNIVERSITY COLLEGE LONDON - LONDON (UK)                                 *
 *(18) UNIVERSITY OF VERMONT - BURLINGTON (USA)                                *
 *                                                                             *
 *******************************************************************************
 EEEEEEEEEE STARTING  DATE 13 12 2024 TIME 00:29:39.7
 INFORMATION **** SET_MPP **** PCRYSTAL CALCULATION

 *******************************************************************************
 G Unit                                                                          
 CRYSTAL - PROPERTIES - TYPE OF CALCULATION :  RESTRICTED CLOSED SHELL
 *******************************************************************************
 KOHN-SHAM HAMILTONIAN

 (EXCHANGE)[CORRELATION] FUNCTIONAL:(HSE06 SR/GGA)[PERDEW-BURKE-ERNZERHOF]

 RANGE-SEPARATED HYBRID FUNCTIONAL 
 OMEGA (SHORT-RANGE)[LONG-RANGE]:(    0.1100)[    0.0000]

 HYBRID EXCHANGE - PERCENTAGE OF FOCK EXCHANGE    25.0000

 DIRECT LATTICE VECTOR COMPONENTS (ANGSTROM)
         2.12354   -1.22603    0.00000
         0.00000    2.45205    0.00000
         0.00000    0.00000  500.00000

 LATTICE PARAMETERS  (ANGSTROM AND DEGREES) - PRIMITIVE CELL
       A          B          C         ALPHA      BETA     GAMMA        VOLUME
    2.45205    2.45205  500.00000     90.0000   90.0000  120.0000       5.20703
 *******************************************************************************
 N. OF ATOMS PER CELL         2 COULOMB OVERLAP TOL          (T1) 10**   -7
 NUMBER OF SHELLS             8 COULOMB PENETRATION TOL      (T2) 10**   -7
 NUMBER OF AO                28 EXCHANGE OVERLAP TOL         (T3) 10**   -7
 N. OF ELECTRONS PER CELL    12 EXCHANGE PSEUDO OVP (F(G))   (T4) 10**   -7
 CORE ELECTRONS PER CELL      4 EXCHANGE PSEUDO OVP (P(G))   (T5) 10**  -14
 N. OF SYMMETRY OPERATORS    12 POLE ORDER IN MONO ZONE                   4
 *******************************************************************************
   ATOM N.AT.  SHELL    X(A)      Y(A)      Z(A)      EXAD       N.ELECT.
 *******************************************************************************
    1    6 C     4    -1.416    -0.000     0.000   8.000E-01       6.000
    2    6 C     4    -0.708    -1.226     0.000   8.000E-01       6.000
 *******************************************************************************
 DE(K)                   0.000E+00  ENERGY LEVEL SHIFTING        0.00000
 TOTAL ENERGY -7.6091361385347E+01  CONVERGENCE ON ENER        2.842E-13
 KIN. ENERGY   7.5855699328090E+01  VIR. COEFF.           1.05701194E+00
 N. OF SCF CYCLES                8  FERMI ENERGY              -0.977E-01
 WEIGHT OF F(I) IN F(I+1)      30
 SHRINK. FACT.(MONKH.)    24 24  1  SHRINKING FACTOR(GILAT NET)       48
 NUMBER OF K POINTS IN THE IBZ  61  CELL VOLUME (A.U.)         18.594648
 *******************************************************************************

 GCALCO - MAX INDICES DIRECT LATTICE VECTOR    83    83     0
 NO.OF VECTORS CREATED 6999 STARS  503 RMAX   203.72512 BOHR
 TTTTTTTTTTTTTTTTTTTTTTTTTTTTTT gordsh1     TELAPSE        1.17 TCPU        0.39

 MATRIX SIZE: P(G)   16142, F(G)    3969, P(G) IRR    1249, F(G) IRR     705
 MAX G-VECTOR INDEX FOR 1- AND 2-ELECTRON INTEGRALS  55


 CAPPA:IS1 24;IS2 24;IS3  1; K PTS MONK NET  61; SYMMOPS:K SPACE  24;G SPACE  12


 CAPPA:IS1 24;IS2 24;IS3  1; K PTS MONK NET  61; SYMMOPS:K SPACE  24;G SPACE  12

 *******************************************************************************
 RESTART WITH NEW K POINTS NET
 *******************************************************************************
 POINTS IN THE IBZ                  61 POINTS(GILAT NET)               217
 SHRINK FACTORS(MONK.)        24 24  1 SHRINK FACTOR(GILAT)             48
 *******************************************************************************
 *** K POINTS COORDINATES (OBLIQUE COORDINATES IN UNITS OF IS = 24)
   1-R(  0  0  0)   2-C(  1  0  0)   3-C(  2  0  0)   4-C(  3  0  0)
   5-C(  4  0  0)   6-C(  5  0  0)   7-C(  6  0  0)   8-C(  7  0  0)
   9-C(  8  0  0)  10-C(  9  0  0)  11-C( 10  0  0)  12-C( 11  0  0)
  13-R( 12  0  0)  14-C(  1  1  0)  15-C(  2  1  0)  16-C(  3  1  0)
  17-C(  4  1  0)  18-C(  5  1  0)  19-C(  6  1  0)  20-C(  7  1  0)
  21-C(  8  1  0)  22-C(  9  1  0)  23-C( 10  1  0)  24-C( 11  1  0)
  25-C(  2  2  0)  26-C(  3  2  0)  27-C(  4  2  0)  28-C(  5  2  0)
  29-C(  6  2  0)  30-C(  7  2  0)  31-C(  8  2  0)  32-C(  9  2  0)
  33-C( 10  2  0)  34-C( 11  2  0)  35-C(  3  3  0)  36-C(  4  3  0)
  37-C(  5  3  0)  38-C(  6  3  0)  39-C(  7  3  0)  40-C(  8  3  0)
  41-C(  9  3  0)  42-C( 10  3  0)  43-C(  4  4  0)  44-C(  5  4  0)
  45-C(  6  4  0)  46-C(  7  4  0)  47-C(  8  4  0)  48-C(  9  4  0)
  49-C( 10  4  0)  50-C(  5  5  0)  51-C(  6  5  0)  52-C(  7  5  0)
  53-C(  8  5  0)  54-C(  9  5  0)  55-C(  6  6  0)  56-C(  7  6  0)
  57-C(  8  6  0)  58-C(  9  6  0)  59-C(  7  7  0)  60-C(  8  7  0)
  61-C(  8  8  0)

 FERMI ENERGY AND DENSITY MATRIX CALCULATION ON COMPUTED EIGENVECTORS
 DENSITY MATRIX AT SCF CYCLE (  8+1)

 POSSIBLY CONDUCTING STATE - EFERMI(AU) -9.7730938E-02 (RES. CHARGE  3.32E-10;IT.  0)

 CORE DENSITY MATRIX CALCULATION
 TTTTTTTTTTTTTTTTTTTTTTTTTTTTTT NEWK        TELAPSE        8.98 TCPU        1.40
 TTTTTTTTTTTTTTTTTTTTTTTTTTTTTT DLV_BAND    TELAPSE       12.15 TCPU        1.45
 ENDPROP   
 TTTTTTTTTTTTTTTTTTTTTTTTTTTTTT END         TELAPSE       12.31 TCPU        1.47
 EEEEEEEEEE TERMINATION  DATE 13 12 2024 TIME 00:29:51.0
NODE    0 CPU TIME =         1.472
NODE    1 CPU TIME =         1.492
NODE    2 CPU TIME =         1.490
NODE    3 CPU TIME =         1.495
NODE    4 CPU TIME =         1.481
NODE    5 CPU TIME =         1.486
NODE    6 CPU TIME =         1.454
NODE    7 CPU TIME =         1.468
    TOTAL CPU TIME =        11.839
  fort.9               fsurf_graphene.f9                                     111308   Dec 13 00:29
  fort.35              fsurf_graphene.f35                                    403481   Dec 13 00:29
--------------------------------------------

Temporary Directory Disk Info
--------------------------------------------
  Temporary directory      : /mnt/c/Users/hz1420/Desktop/gfermi/fsurf_graphene_tmpfile

  Disk usage (df -h)
Filesystem      Size  Used Avail Use% Mounted on
C:\             953G  459G  495G  49% /mnt/c

  Usage by folders (du -m)
6	/mnt/c/Users/hz1420/Desktop/gfermi/fsurf_graphene_tmpfile

  Detailed file list (ls -l .)
    see /mnt/c/Users/hz1420/Desktop/gfermi/fsurf_graphene.log file
--------------------------------------------

