F1 HA freq - PBEh-3c
EXTERNAL
FREQCALC
MODES
ENDFREQ
BASISSET
def2-mSVP
DFT
PBEH3C
XXLGRID
ENDDFT
TOLDEE
9
TOLINTEG
8 8 8 8 24
FMIXING
50
MAXCYCLE
30
SHRINK
0 4
4 4 2
ENDSCF

         192 PROCESSORS WORKING

         
 *******************************************************************************
 *                                                                             *
 *                               CRYSTAL17                                     *
 *                      public : 1.0.2 - March 1st, 2018                       *
 *                       HTTP://WWW.CRYSTAL.UNITO.IT                           *
 *                                                                             *
 *                              MAIN AUTHORS                                   *
 *                                                                             *
 *  R. DOVESI(1,11), V.R. SAUNDERS(2), C. ROETTI(1,11), R. ORLANDO(1,11),      *
 *  C.M. ZICOVICH-WILSON(1,3), F. PASCALE(4), B. CIVALLERI(1,11),              *
 *  K. DOLL(5), N.M. HARRISON(2,6), I.J. BUSH(7), Ph. D'ARCO(8),               *
 *  M. LLUNELL(9), M. CAUSA'(10), Y. NOEL(8), L. MASCHIO(1,11), A. ERBA(1,11)  *
 *  M. RE'RAT(14), S. CASASSA(1,11)                                            *
 *                                                                             *
 *        CONTRIBUTIONS TO THE CODE HAVE ALSO BEEN GIVEN BY                    *
 *                                                                             *
 *  M. FERRABONE(1,11), M. DE LA PIERRE(1,11), M. FERRERO(1,11),               *
 *  J. BAIMA(1,11), E. ALBANESE(1,11), M.F. PEINTINGER(12), R. BAST(13),       *
 *  B. KIRTMAN(15), V. LACIVITA(1,11), R. DEMICHELIS(1,16)                     *
 *  G. BRANDEBURG(17), S. SALUSTRO(1,11), G. SANSONE(1,11)                     *
 *  M.T. RUGGIERO(18)                                                          *
 *                                                                             *
 * (1) THEORETICAL CHEMISTRY GROUP - UNIVERSITA' DI TORINO - TORINO (ITALY)    *
 * (2) COMPUTATIONAL SCIENCE & ENGINEERING DEPARTMENT - STFC DARESBURY (UK)    *
 * (3) UNIVERSIDAD AUTONOMA DEL ESTADO DE MORELOS - CUERNAVACA (MEXICO)        *
 * (4) UNIVERSITE' DE LORRAINE - NANCY (FRANCE)                                *
 * (5) UNIVERSITAET STUTTGART- STUTTGART (GERMANY)                             *
 * (6) IMPERIAL COLLEGE - LONDON (UK)                                          *
 * (7) OXFORD E-RESEARCH CENTRE - OXFORD (UK)                                  *
 * (8) UPMC - SORBONNE UNIVERSITES - PARIS (FRANCE)                            *
 * (9) UNIVERSIDAD DE BARCELONA - BARCELONA (SPAIN)                            *
 *(10) UNIVERSITA' DI NAPOLI "FEDERICO II" - NAPOLI (ITALY)                    *
 *(11) NIS - NANOSTRUCTURED INTERFACES AND SURFACES - TORINO (ITALY)           *
 *(12) MPI FUER CHEMISCHE ENERGIEKONVERSION - MUELHEIM AN DER RUHR (GERMANY)   *
 *(13) UNIVERSITY OF TROMSO - TROMSO (NORWAY)                                  *
 *(14) UNIVERSITE' DE PAU ET DES PAYS DE L'ADOUR - PAU (FRANCE)                *
 *(15) UNIVERSITY OF CALIFORNIA SANTA BARBARA - SANTA BARBARA (USA)            *
 *(16) CURTIN UNIVERSITY - PERTH (AUSTRALIA)                                   *
 *(17) UNIVERSITY COLLEGE LONDON - LONDON (UK)                                 *
 *(18) CAMBRIDGE UNIVERSITY - CAMBRIDGE (UK)                                   *
 *                                                                             *
 *******************************************************************************
 EEEEEEEEEE STARTING  DATE 24 02 2022 TIME 17:38:53.3
 F1 HA freq - PBEh-3c                                                            

 GEOMETRY INPUT FROM EXTERNAL FILE (FORTRAN UNIT 34)
 3D - CRYSTAL 

 *******************************************************************************
 LATTICE PARAMETERS  (ANGSTROMS AND DEGREES) - PRIMITIVE CELL
       A          B          C        ALPHA      BETA     GAMMA        VOLUME
    7.16300    9.27618   12.67048    90.00000 116.36971  90.00000    754.292434

 NUMBER OF IRREDUCIBLE ATOMS IN THE CELL:   20

 CARTESIAN COORDINATES (ANGSTROM) - IRREDUCIBLE ATOMS AND SYMMETRY RELATED

 AT.IRR.  AT  AT.N.          X                   Y                   Z
     1     1     8    1.999102137637E+00  3.994241344426E+00 -3.263652722402E+00
     1     2     8    7.895505583340E-01 -6.438503772450E-01 -2.424817038955E+00
     1     3     8   -1.999102137637E+00 -3.994241344426E+00  3.263652722402E+00
     1     4     8   -7.895505583340E-01  6.438503772550E-01  2.424817038915E+00
     5     5     8    1.564099903085E+00 -1.752738643500E-02  3.427923611666E+00
     5     6     8    2.810179828728E+00  4.620564335245E+00  2.228757563479E+00
     5     7     8   -1.564099903085E+00  1.752738643500E-02 -3.427923611666E+00
     5     8     8   -2.810179828728E+00 -4.620564335235E+00 -2.228757563519E+00
     9     9     7   -3.416011330835E+00  4.020110668620E-01  3.877294384449E+00
     9    10     7    6.273586348640E-01 -4.236080654808E+00  1.811175376868E+00
     9    11     7    3.416011330835E+00 -4.020110668620E-01 -3.877294384449E+00
     9    12     7   -6.273586348640E-01  4.236080654818E+00 -1.811175376908E+00
    13    13     6   -3.506084388713E+00  1.281217093700E+00  4.971051943134E+00
    13    14     6    7.174316927420E-01 -3.356874627970E+00  7.174178181830E-01
    13    15     6    3.506084388713E+00 -1.281217093700E+00 -4.971051943134E+00
    13    16     6   -7.174316927420E-01  3.356874627980E+00 -7.174178182230E-01
    17    17     6    1.004887210173E+00  1.318731581879E+00 -5.513988309534E+00
    17    18     6    1.783765485798E+00 -3.319360139791E+00 -1.744814518230E-01
    17    19     6   -1.004887210173E+00 -1.318731581879E+00  5.513988309534E+00
    17    20     6   -1.783765485798E+00  3.319360139801E+00  1.744814517830E-01
    21    21     6    1.001228756752E+00  2.227680579240E+00 -4.466345461147E+00
    21    22     6    1.787423939218E+00 -2.410411142430E+00 -1.222124300210E+00
    21    23     6   -1.001228756752E+00 -2.227680579240E+00  4.466345461147E+00
    21    24     6   -1.787423939219E+00  2.410411142440E+00  1.222124300170E+00
    25    25     6    2.062372590425E+00  3.107824184571E+00 -4.277474071500E+00
    25    26     6    7.262801055450E-01 -1.530267537099E+00 -1.410995689857E+00
    25    27     6   -2.062372590425E+00 -3.107824184571E+00  4.277474071500E+00
    25    28     6   -7.262801055450E-01  1.530267537109E+00  1.410995689817E+00
    29    29     6    3.143232573865E+00  3.047739961011E+00 -5.152514952000E+00
    29    30     6   -3.545798778940E-01 -1.590351760660E+00 -5.359548093570E-01
    29    31     6   -3.143232573865E+00 -3.047739961011E+00  5.152514952000E+00
    29    32     6    3.545798778940E-01  1.590351760670E+00  5.359548093170E-01
    33    33     6   -2.436463559744E+00  2.148002991589E+00  5.174991950825E+00
    33    34     6   -3.521891362270E-01 -2.490088730082E+00  5.134778104920E-01
    33    35     6    2.436463559744E+00 -2.148002991589E+00 -5.174991950825E+00
    33    36     6    3.521891362270E-01  2.490088730092E+00 -5.134778105320E-01
    37    37     6    2.754691483484E+00 -1.590059330070E-01  3.142542025822E+00
    37    38     6    1.619588248329E+00  4.479085788674E+00  2.514139149324E+00
    37    39     6   -2.754691483484E+00  1.590059330070E-01 -3.142542025822E+00
    37    40     6   -1.619588248329E+00 -4.479085788664E+00 -2.514139149364E+00
    41    41     6    3.190623037785E+00 -9.920045417870E-01  1.970721542216E+00
    41    42     6    1.183656694028E+00  3.646087179893E+00  3.685959632930E+00
    41    43     6   -3.190623037785E+00  9.920045417870E-01 -1.970721542216E+00
    41    44     6   -1.183656694028E+00 -3.646087179883E+00 -3.685959632970E+00
    45    45     1    1.688104963200E-01  6.471316975490E-01 -5.616522098166E+00
    45    46     1    2.619842199650E+00 -3.990960024121E+00 -7.194766319100E-02
    45    47     1   -1.688104963200E-01 -6.471316975490E-01  5.616522098166E+00
    45    48     1   -2.619842199650E+00  3.990960024131E+00  7.194766315100E-02
    49    49     1    1.582596542900E-01  2.238793100651E+00 -3.786881814131E+00
    49    50     1    2.630393041680E+00 -2.399298621020E+00 -1.901587947225E+00
    49    51     1   -1.582596542900E-01 -2.238793100651E+00  3.786881814131E+00
    49    52     1   -2.630393041680E+00  2.399298621030E+00  1.901587947185E+00
    53    53     1   -3.178851562363E+00  3.717879754805E+00 -5.001691366040E+00
    53    54     1   -1.195428169450E+00 -9.202119668650E-01 -6.549898091460E-01
    53    55     1    3.178851562363E+00 -3.717879754805E+00  5.001691366040E+00
    53    56     1    1.195428169450E+00  9.202119668750E-01  6.549898091060E-01
    57    57     1   -1.586307027256E+00  2.119746283857E+00  4.505367258857E+00
    57    58     1   -1.202345668714E+00 -2.518345437813E+00  1.183102502460E+00
    57    59     1    1.586307027256E+00 -2.119746283857E+00 -4.505367258857E+00
    57    60     1    1.202345668714E+00  2.518345437823E+00 -1.183102502500E+00
    61    61     1    2.882270819698E+00  4.358099219864E+00 -3.026146322896E+00
    61    62     1   -9.361812372700E-02 -2.799925018060E-01 -2.662323438461E+00
    61    63     1   -2.882270819698E+00 -4.358099219864E+00  3.026146322896E+00
    61    64     1    9.361812372700E-02  2.799925018160E-01  2.662323438421E+00
    65    65     1   -2.477738726417E+00  2.615791195490E-01  3.520884507008E+00
    65    66     1   -3.109139695540E-01 -4.376512602121E+00  2.167585254309E+00
    65    67     1    2.477738726417E+00 -2.615791195490E-01 -3.520884507008E+00
    65    68     1    3.109139695540E-01  4.376512602131E+00 -2.167585254349E+00
    69    69     1    2.556755741939E+00 -7.910405166230E-01  1.108492114205E+00
    69    70     1    1.817523989874E+00  3.847051205057E+00  4.548189060941E+00
    69    71     1   -2.556755741939E+00  7.910405166230E-01 -1.108492114205E+00
    69    72     1   -1.817523989874E+00 -3.847051205047E+00 -4.548189060981E+00
    73    73     1   -2.932607495924E+00 -8.316567725920E-01  1.724838691827E+00
    73    74     1    1.439547999530E-01  3.806434949088E+00  3.963631069490E+00
    73    75     1    2.932607495924E+00  8.316567725920E-01 -1.724838691827E+00
    73    76     1   -1.439547999530E-01 -3.806434949078E+00 -3.963631069530E+00
    77    77     1    3.061791680880E+00 -2.048163691236E+00  2.203356784841E+00
    77    78     1    1.312488050933E+00  2.589928030444E+00  3.453324390305E+00
    77    79     1   -3.061791680880E+00  2.048163691236E+00 -2.203356784841E+00
    77    80     1   -1.312488050933E+00 -2.589928030434E+00 -3.453324390345E+00

 SPACE  GROUP  N.                     :   14
 NUMBER OF SYMMETRY OPERATORS         :    4
 *******************************************************************************
 LATTICE PARAMETERS (ANGSTROMS AND DEGREES) - BOHR = 0.5291772083 ANGSTROM
 PRIMITIVE CELL - CENTRING CODE 1/0 VOLUME=   754.292434 - DENSITY  1.330 g/cm^3
         A              B              C           ALPHA      BETA       GAMMA 
     7.16300297     9.27618344    12.67048098    90.000000 116.369705  90.000000
 *******************************************************************************
 ATOMS IN THE ASYMMETRIC UNIT   20 - ATOMS IN THE UNIT CELL:   80
     ATOM                 X/A                 Y/B                 Z/C    
 *******************************************************************************
      1 T   8 O     5.584798304301E-02  4.305910258048E-01 -2.867095660896E-01
      2 F   8 O    -5.584798304335E-02 -6.940897419472E-02 -2.132904339111E-01
      3 F   8 O    -5.584798304301E-02 -4.305910258048E-01  2.867095660896E-01
      4 F   8 O     5.584798304061E-02  6.940897419580E-02  2.132904339075E-01
      5 T   8 O     4.539539759625E-01 -1.889504076977E-03  3.025729511773E-01
      6 F   8 O    -4.539539759644E-01  4.981104959236E-01  1.974270488198E-01
      7 F   8 O    -4.539539759625E-01  1.889504076977E-03 -3.025729511773E-01
      8 F   8 O     4.539539759616E-01 -4.981104959225E-01 -1.974270488233E-01
      9 T   7 N    -2.120015878266E-01  4.333798154350E-02  3.402105764897E-01
     10 F   7 N     2.120015878242E-01 -4.566620184560E-01  1.597894235074E-01
     11 F   7 N     2.120015878266E-01 -4.333798154350E-02 -3.402105764897E-01
     12 F   7 N    -2.120015878270E-01  4.566620184570E-01 -1.597894235109E-01
     13 T   6 C    -1.495842350046E-01  1.381189905875E-01  4.365230967327E-01
     14 F   6 C     1.495842350022E-01 -3.618810094120E-01  6.347690326439E-02
     15 F   6 C     1.495842350046E-01 -1.381189905875E-01 -4.365230967327E-01
     16 F   6 C    -1.495842350050E-01  3.618810094130E-01 -6.347690326791E-02
     17 T   6 C    -2.376027369036E-01  1.421631633239E-01 -4.853274778857E-01
     18 F   6 C     2.376027369032E-01 -3.578368366756E-01 -1.467252211488E-02
     19 F   6 C     2.376027369036E-01 -1.421631633239E-01  4.853274778857E-01
     20 F   6 C    -2.376027369060E-01  3.578368366767E-01  1.467252211135E-02
     21 T   6 C    -1.662579006697E-01  2.401505525246E-01 -3.930433624814E-01
     22 F   6 C     1.662579006692E-01 -2.598494474749E-01 -1.069566375193E-01
     23 F   6 C     1.662579006697E-01 -2.401505525246E-01  3.930433624814E-01
     24 F   6 C    -1.662579006721E-01  2.598494474759E-01  1.069566375157E-01
     25 T   6 C    -4.836637630869E-03  3.350326353021E-01 -3.759910837917E-01
     26 F   6 C     4.836637630389E-03 -1.649673646974E-01 -1.240089162090E-01
     27 F   6 C     4.836637630869E-03 -3.350326353021E-01  3.759910837917E-01
     28 F   6 C    -4.836637633132E-03  1.649673646985E-01  1.240089162054E-01
     29 T   6 C     8.637055174037E-02  3.285553783648E-01 -4.526497960192E-01
     30 F   6 C    -8.637055174071E-02 -1.714446216348E-01 -4.735020398138E-02
     31 F   6 C    -8.637055174037E-02 -3.285553783648E-01  4.526497960192E-01
     32 F   6 C     8.637055173797E-02  1.714446216359E-01  4.735020397786E-02
     33 T   6 C     1.405660189796E-02  2.315610730110E-01  4.549060650274E-01
     34 F   6 C    -1.405660190036E-02 -2.684389269886E-01  4.509393496973E-02
     35 F   6 C    -1.405660189796E-02 -2.315610730110E-01 -4.549060650274E-01
     36 F   6 C     1.405660189762E-02  2.684389269896E-01 -4.509393497326E-02
     37 T   6 C    -3.990419675309E-01 -1.714130967526E-02  2.778994848056E-01
     38 F   6 C     3.990419675291E-01  4.828586903254E-01  2.221005151915E-01
     39 F   6 C     3.990419675309E-01  1.714130967526E-02 -2.778994848056E-01
     40 F   6 C    -3.990419675319E-01 -4.828586903243E-01 -2.221005151951E-01
     41 T   6 C    -4.184238116732E-01 -1.069410224415E-01  1.748457063540E-01
     42 F   6 C     4.184238116713E-01  3.930589775590E-01  3.251542936431E-01
     43 F   6 C     4.184238116732E-01  1.069410224415E-01 -1.748457063540E-01
     44 F   6 C    -4.184238116741E-01 -3.930589775579E-01 -3.251542936466E-01
     45 T   1 H    -3.616126012459E-01  6.976271022464E-02 -4.946863996483E-01
     46 F   1 H     3.616126012454E-01 -4.302372897748E-01 -5.313600352283E-03
     47 F   1 H     3.616126012459E-01 -6.976271022464E-02  4.946863996483E-01
     48 F   1 H    -3.616126012481E-01  4.302372897759E-01  5.313600348759E-03
     49 T   1 H    -2.375957287494E-01  2.413485151866E-01 -3.335198045887E-01
     50 F   1 H     2.375957287490E-01 -2.586514848130E-01 -1.664801954118E-01
     51 F   1 H     2.375957287494E-01 -2.413485151866E-01  3.335198045887E-01
     52 F   1 H    -2.375957287518E-01  2.586514848141E-01  1.664801954083E-01
     53 T   1 H     2.121798175087E-01  4.007984293875E-01 -4.418354378846E-01
     54 F   1 H    -2.121798175096E-01 -9.920157061196E-02 -5.816456211606E-02
     55 F   1 H    -2.121798175087E-01 -4.007984293875E-01  4.418354378846E-01
     56 F   1 H     2.121798175068E-01  9.920157061304E-02  5.816456211253E-02
     57 T   1 H     8.707488119122E-02  2.285149163772E-01  3.962520181483E-01
     58 F   1 H    -8.707488119348E-02 -2.714850836222E-01  1.037479818488E-01
     59 F   1 H    -8.707488119122E-02 -2.285149163772E-01 -3.962520181483E-01
     60 F   1 H     8.707488119074E-02  2.714850836233E-01 -1.037479818523E-01
     61 T   1 H     1.957042062067E-01  4.698159805139E-01 -2.654426664436E-01
     62 F   1 H    -1.957042062071E-01 -3.018401948559E-02 -2.345573335570E-01
     63 F   1 H    -1.957042062067E-01 -4.698159805139E-01  2.654426664436E-01
     64 F   1 H     1.957042062043E-01  3.018401948667E-02  2.345573335535E-01
     65 T   1 H    -1.051717431690E-01  2.819900243958E-02  3.091816774598E-01
     66 F   1 H     1.051717431666E-01 -4.718009975599E-01  1.908183225373E-01
     67 F   1 H     1.051717431690E-01 -2.819900243958E-02 -3.091816774598E-01
     68 F   1 H    -1.051717431693E-01  4.718009975610E-01 -1.908183225408E-01
     69 T   1 H     4.337511440972E-01 -8.527650638368E-02  9.864519782203E-02
     70 F   1 H    -4.337511440991E-01  4.147234936169E-01  4.013548021751E-01
     71 F   1 H    -4.337511440972E-01  8.527650638368E-02 -9.864519782203E-02
     72 F   1 H     4.337511440963E-01 -4.147234936158E-01 -4.013548021786E-01
     73 T   1 H    -2.920022051166E-01 -8.965505885809E-02  1.507924298221E-01
     74 F   1 H     2.920022051142E-01  4.103449411424E-01  3.492075701750E-01
     75 F   1 H     2.920022051166E-01  8.965505885809E-02 -1.507924298221E-01
     76 F   1 H    -2.920022051170E-01 -4.103449411414E-01 -3.492075701785E-01
     77 T   1 H    -4.204926656049E-01 -2.207981012605E-01  1.952878890886E-01
     78 F   1 H     4.204926656031E-01  2.792018987400E-01  3.047121109085E-01
     79 F   1 H     4.204926656049E-01  2.207981012605E-01 -1.952878890886E-01
     80 F   1 H    -4.204926656059E-01 -2.792018987389E-01 -3.047121109120E-01

 T = ATOM BELONGING TO THE ASYMMETRIC UNIT
 *******************************************************************************
 * GEOMETRY EDITING - INPUT COORDINATES ARE GIVEN IN ANGSTROM         
 *******************************************************************************

 GEOMETRY NOW FULLY CONSISTENT WITH THE GROUP

 FRQFRQFRQFRQFRQFRQFRQFRQFRQFRQFRQFRQFRQFRQFRQFRQFRQFRQFRQFRQFRQFRQFRQFRQFRQFRQ

                       FREQUENCY CALCULATION

 INFORMATION **** INPFREQ ****  PRINTING OF EIGENVECTORS
 INFORMATION **** INPFREQ **** NEW DEFAULT - IMPOSING ECKART CONDITIONS TO THE HESSIAN

 GCALCO - MAX INDICES DIRECT LATTICE VECTOR    20    14    11
 NO.OF VECTORS CREATED 6999 STARS 1868 RMAX   203.98008 BOHR

 GEOMETRY FOR WAVE FUNCTION - DIMENSIONALITY OF THE SYSTEM    3
 (NON PERIODIC DIRECTION: LATTICE PARAMETER FORMALLY SET TO 500)
 *******************************************************************************
 LATTICE PARAMETERS (ANGSTROMS AND DEGREES) - BOHR = 0.5291772083 ANGSTROM
 PRIMITIVE CELL - CENTRING CODE 1/0 VOLUME=   754.292434 - DENSITY  1.330 g/cm^3
         A              B              C           ALPHA      BETA       GAMMA 
     7.16300297     9.27618344    12.67048098    90.000000 116.369705  90.000000
 *******************************************************************************
 ATOMS IN THE ASYMMETRIC UNIT   20 - ATOMS IN THE UNIT CELL:   80
     ATOM                 X/A                 Y/B                 Z/C    
 *******************************************************************************
      1 T   8 O     5.584798304301E-02  4.305910258048E-01 -2.867095660896E-01
      2 F   8 O    -5.584798304507E-02 -6.940897419462E-02 -2.132904339131E-01
      3 F   8 O    -5.584798304301E-02 -4.305910258048E-01  2.867095660896E-01
      4 F   8 O     5.584798304095E-02  6.940897419569E-02  2.132904339078E-01
      5 T   8 O     4.539539759625E-01 -1.889504076977E-03  3.025729511773E-01
      6 F   8 O    -4.539539759645E-01  4.981104959236E-01  1.974270488201E-01
      7 F   8 O    -4.539539759625E-01  1.889504076977E-03 -3.025729511773E-01
      8 F   8 O     4.539539759604E-01 -4.981104959225E-01 -1.974270488254E-01
      9 T   7 N    -2.120015878266E-01  4.333798154350E-02  3.402105764897E-01
     10 F   7 N     2.120015878246E-01 -4.566620184560E-01  1.597894235077E-01
     11 F   7 N     2.120015878266E-01 -4.333798154350E-02 -3.402105764897E-01
     12 F   7 N    -2.120015878287E-01  4.566620184570E-01 -1.597894235130E-01
     13 T   6 C    -1.495842350046E-01  1.381189905875E-01  4.365230967327E-01
     14 F   6 C     1.495842350026E-01 -3.618810094120E-01  6.347690326465E-02
     15 F   6 C     1.495842350046E-01 -1.381189905875E-01 -4.365230967327E-01
     16 F   6 C    -1.495842350067E-01  3.618810094130E-01 -6.347690326994E-02
     17 T   6 C    -2.376027369036E-01  1.421631633239E-01 -4.853274778857E-01
     18 F   6 C     2.376027369015E-01 -3.578368366756E-01 -1.467252211690E-02
     19 F   6 C     2.376027369036E-01 -1.421631633239E-01  4.853274778857E-01
     20 F   6 C    -2.376027369056E-01  3.578368366767E-01  1.467252211162E-02
     21 T   6 C    -1.662579006697E-01  2.401505525246E-01 -3.930433624814E-01
     22 F   6 C     1.662579006676E-01 -2.598494474749E-01 -1.069566375213E-01
     23 F   6 C     1.662579006697E-01 -2.401505525246E-01  3.930433624814E-01
     24 F   6 C    -1.662579006717E-01  2.598494474759E-01  1.069566375160E-01
     25 T   6 C    -4.836637630869E-03  3.350326353021E-01 -3.759910837917E-01
     26 F   6 C     4.836637628811E-03 -1.649673646974E-01 -1.240089162110E-01
     27 F   6 C     4.836637630869E-03 -3.350326353021E-01  3.759910837917E-01
     28 F   6 C    -4.836637632927E-03  1.649673646985E-01  1.240089162057E-01
     29 T   6 C     8.637055174037E-02  3.285553783648E-01 -4.526497960192E-01
     30 F   6 C    -8.637055174243E-02 -1.714446216347E-01 -4.735020398341E-02
     31 F   6 C    -8.637055174037E-02 -3.285553783648E-01  4.526497960192E-01
     32 F   6 C     8.637055173832E-02  1.714446216358E-01  4.735020397812E-02
     33 T   6 C     1.405660189796E-02  2.315610730110E-01  4.549060650274E-01
     34 F   6 C    -1.405660190002E-02 -2.684389269885E-01  4.509393497000E-02
     35 F   6 C    -1.405660189796E-02 -2.315610730110E-01 -4.549060650274E-01
     36 F   6 C     1.405660189590E-02  2.684389269895E-01 -4.509393497528E-02
     37 T   6 C    -3.990419675309E-01 -1.714130967526E-02  2.778994848056E-01
     38 F   6 C     3.990419675289E-01  4.828586903253E-01  2.221005151918E-01
     39 F   6 C     3.990419675309E-01  1.714130967526E-02 -2.778994848056E-01
     40 F   6 C    -3.990419675330E-01 -4.828586903242E-01 -2.221005151971E-01
     41 T   6 C    -4.184238116732E-01 -1.069410224415E-01  1.748457063540E-01
     42 F   6 C     4.184238116711E-01  3.930589775590E-01  3.251542936433E-01
     43 F   6 C     4.184238116732E-01  1.069410224415E-01 -1.748457063540E-01
     44 F   6 C    -4.184238116752E-01 -3.930589775579E-01 -3.251542936486E-01
     45 T   1 H    -3.616126012459E-01  6.976271022464E-02 -4.946863996483E-01
     46 F   1 H     3.616126012438E-01 -4.302372897748E-01 -5.313600354309E-03
     47 F   1 H     3.616126012459E-01 -6.976271022464E-02  4.946863996483E-01
     48 F   1 H    -3.616126012479E-01  4.302372897759E-01  5.313600349024E-03
     49 T   1 H    -2.375957287494E-01  2.413485151866E-01 -3.335198045887E-01
     50 F   1 H     2.375957287474E-01 -2.586514848129E-01 -1.664801954140E-01
     51 F   1 H     2.375957287494E-01 -2.413485151866E-01  3.335198045887E-01
     52 F   1 H    -2.375957287515E-01  2.586514848139E-01  1.664801954087E-01
     53 T   1 H     2.121798175087E-01  4.007984293875E-01 -4.418354378846E-01
     54 F   1 H    -2.121798175107E-01 -9.920157061196E-02 -5.816456211806E-02
     55 F   1 H    -2.121798175087E-01 -4.007984293875E-01  4.418354378846E-01
     56 F   1 H     2.121798175066E-01  9.920157061304E-02  5.816456211278E-02
     57 T   1 H     8.707488119122E-02  2.285149163772E-01  3.962520181483E-01
     58 F   1 H    -8.707488119327E-02 -2.714850836222E-01  1.037479818491E-01
     59 F   1 H    -8.707488119122E-02 -2.285149163772E-01 -3.962520181483E-01
     60 F   1 H     8.707488118916E-02  2.714850836233E-01 -1.037479818543E-01
     61 T   1 H     1.957042062067E-01  4.698159805139E-01 -2.654426664436E-01
     62 F   1 H    -1.957042062088E-01 -3.018401948559E-02 -2.345573335591E-01
     63 F   1 H    -1.957042062067E-01 -4.698159805139E-01  2.654426664436E-01
     64 F   1 H     1.957042062047E-01  3.018401948667E-02  2.345573335538E-01
     65 T   1 H    -1.051717431690E-01  2.819900243958E-02  3.091816774598E-01
     66 F   1 H     1.051717431669E-01 -4.718009975599E-01  1.908183225375E-01
     67 F   1 H     1.051717431690E-01 -2.819900243958E-02 -3.091816774598E-01
     68 F   1 H    -1.051717431710E-01  4.718009975610E-01 -1.908183225428E-01
     69 T   1 H     4.337511440972E-01 -8.527650638368E-02  9.864519782203E-02
     70 F   1 H    -4.337511440993E-01  4.147234936169E-01  4.013548021753E-01
     71 F   1 H    -4.337511440972E-01  8.527650638368E-02 -9.864519782203E-02
     72 F   1 H     4.337511440952E-01 -4.147234936158E-01 -4.013548021806E-01
     73 T   1 H    -2.920022051166E-01 -8.965505885809E-02  1.507924298221E-01
     74 F   1 H     2.920022051146E-01  4.103449411424E-01  3.492075701752E-01
     75 F   1 H     2.920022051166E-01  8.965505885809E-02 -1.507924298221E-01
     76 F   1 H    -2.920022051187E-01 -4.103449411414E-01 -3.492075701805E-01
     77 T   1 H    -4.204926656049E-01 -2.207981012605E-01  1.952878890886E-01
     78 F   1 H     4.204926656029E-01  2.792018987400E-01  3.047121109087E-01
     79 F   1 H     4.204926656049E-01  2.207981012605E-01 -1.952878890886E-01
     80 F   1 H    -4.204926656070E-01 -2.792018987389E-01 -3.047121109140E-01

 T = ATOM BELONGING TO THE ASYMMETRIC UNIT

 ****    4 SYMMOPS - TRANSLATORS IN FRACTIONAL UNITS
 **** MATRICES AND TRANSLATORS IN THE CRYSTALLOGRAPHIC REFERENCE FRAME
   V INV                    ROTATION MATRICES                   TRANSLATORS
   1   1  1.00  0.00  0.00  0.00  1.00  0.00  0.00  0.00  1.00  0.00  0.00  0.00
   2   2 -1.00 -0.00  0.00  0.00  1.00  0.00 -0.00  0.00 -1.00 -0.00  0.50  0.50
   3   3 -1.00  0.00  0.00  0.00 -1.00  0.00 -0.00 -0.00 -1.00  0.00  0.00  0.00
   4   4  1.00  0.00 -0.00 -0.00 -1.00 -0.00  0.00 -0.00  1.00 -0.00  0.50  0.50

 DIRECT LATTICE VECTORS CARTESIAN COMPONENTS (ANGSTROM)
          X                    Y                    Z
   0.716293242778E+01   0.443775879918E-15  -0.317885861712E-01
   0.703755018267E-17   0.927618344335E+01  -0.250972257075E-17
  -0.557730539194E+01   0.777451876172E-15   0.113769395227E+02


 CARTESIAN COORDINATES - PRIMITIVE CELL
 *******************************************************************************
 *      ATOM          X(ANGSTROM)         Y(ANGSTROM)         Z(ANGSTROM)
 *******************************************************************************
    1     8 O     1.999102137637E+00  3.994241344426E+00 -3.263652722402E+00
    2     8 O     7.895505583330E-01 -6.438503772440E-01 -2.424817038978E+00
    3     8 O    -1.999102137637E+00 -3.994241344426E+00  3.263652722402E+00
    4     8 O    -7.895505583330E-01  6.438503772540E-01  2.424817038918E+00
    5     8 O     1.564099903085E+00 -1.752738643500E-02  3.427923611666E+00
    6     8 O     2.810179828725E+00  4.620564335245E+00  2.228757563483E+00
    7     8 O    -1.564099903085E+00  1.752738643500E-02 -3.427923611666E+00
    8     8 O    -2.810179828725E+00 -4.620564335235E+00 -2.228757563543E+00
    9     7 N    -3.416011330835E+00  4.020110668620E-01  3.877294384449E+00
   10     7 N     6.273586348650E-01 -4.236080654808E+00  1.811175376871E+00
   11     7 N     3.416011330835E+00 -4.020110668620E-01 -3.877294384449E+00
   12     7 N    -6.273586348650E-01  4.236080654818E+00 -1.811175376931E+00
   13     6 C    -3.506084388713E+00  1.281217093700E+00  4.971051943134E+00
   14     6 C     7.174316927430E-01 -3.356874627970E+00  7.174178181860E-01
   15     6 C     3.506084388713E+00 -1.281217093700E+00 -4.971051943134E+00
   16     6 C    -7.174316927430E-01  3.356874627980E+00 -7.174178182460E-01
   17     6 C     1.004887210173E+00  1.318731581879E+00 -5.513988309534E+00
   18     6 C     1.783765485797E+00 -3.319360139791E+00 -1.744814518460E-01
   19     6 C    -1.004887210173E+00 -1.318731581879E+00  5.513988309534E+00
   20     6 C    -1.783765485797E+00  3.319360139801E+00  1.744814517860E-01
   21     6 C     1.001228756752E+00  2.227680579240E+00 -4.466345461147E+00
   22     6 C     1.787423939218E+00 -2.410411142430E+00 -1.222124300233E+00
   23     6 C    -1.001228756752E+00 -2.227680579240E+00  4.466345461147E+00
   24     6 C    -1.787423939218E+00  2.410411142440E+00  1.222124300173E+00
   25     6 C     2.062372590425E+00  3.107824184571E+00 -4.277474071500E+00
   26     6 C     7.262801055450E-01 -1.530267537099E+00 -1.410995689880E+00
   27     6 C    -2.062372590425E+00 -3.107824184571E+00  4.277474071500E+00
   28     6 C    -7.262801055450E-01  1.530267537109E+00  1.410995689820E+00
   29     6 C     3.143232573865E+00  3.047739961011E+00 -5.152514952000E+00
   30     6 C    -3.545798778950E-01 -1.590351760659E+00 -5.359548093800E-01
   31     6 C    -3.143232573865E+00 -3.047739961011E+00  5.152514952000E+00
   32     6 C     3.545798778950E-01  1.590351760669E+00  5.359548093200E-01
   33     6 C    -2.436463559744E+00  2.148002991589E+00  5.174991950825E+00
   34     6 C    -3.521891362260E-01 -2.490088730081E+00  5.134778104950E-01
   35     6 C     2.436463559744E+00 -2.148002991589E+00 -5.174991950825E+00
   36     6 C     3.521891362260E-01  2.490088730091E+00 -5.134778105550E-01
   37     6 C     2.754691483484E+00 -1.590059330070E-01  3.142542025822E+00
   38     6 C     1.619588248326E+00  4.479085788673E+00  2.514139149327E+00
   39     6 C    -2.754691483484E+00  1.590059330070E-01 -3.142542025822E+00
   40     6 C    -1.619588248326E+00 -4.479085788663E+00 -2.514139149387E+00
   41     6 C     3.190623037785E+00 -9.920045417870E-01  1.970721542216E+00
   42     6 C     1.183656694025E+00  3.646087179893E+00  3.685959632933E+00
   43     6 C    -3.190623037785E+00  9.920045417870E-01 -1.970721542216E+00
   44     6 C    -1.183656694025E+00 -3.646087179883E+00 -3.685959632993E+00
   45     1 H     1.688104963200E-01  6.471316975490E-01 -5.616522098166E+00
   46     1 H     2.619842199650E+00 -3.990960024121E+00 -7.194766321400E-02
   47     1 H    -1.688104963200E-01 -6.471316975490E-01  5.616522098166E+00
   48     1 H    -2.619842199650E+00  3.990960024131E+00  7.194766315400E-02
   49     1 H     1.582596542900E-01  2.238793100651E+00 -3.786881814131E+00
   50     1 H     2.630393041680E+00 -2.399298621019E+00 -1.901587947249E+00
   51     1 H    -1.582596542900E-01 -2.238793100651E+00  3.786881814131E+00
   52     1 H    -2.630393041680E+00  2.399298621029E+00  1.901587947189E+00
   53     1 H    -3.178851562363E+00  3.717879754805E+00 -5.001691366040E+00
   54     1 H    -1.195428169447E+00 -9.202119668650E-01 -6.549898091688E-01
   55     1 H     3.178851562363E+00 -3.717879754805E+00  5.001691366040E+00
   56     1 H     1.195428169447E+00  9.202119668750E-01  6.549898091088E-01
   57     1 H    -1.586307027256E+00  2.119746283857E+00  4.505367258857E+00
   58     1 H    -1.202345668714E+00 -2.518345437813E+00  1.183102502463E+00
   59     1 H     1.586307027256E+00 -2.119746283857E+00 -4.505367258857E+00
   60     1 H     1.202345668714E+00  2.518345437823E+00 -1.183102502523E+00
   61     1 H     2.882270819698E+00  4.358099219864E+00 -3.026146322896E+00
   62     1 H    -9.361812372800E-02 -2.799925018060E-01 -2.662323438484E+00
   63     1 H    -2.882270819698E+00 -4.358099219864E+00  3.026146322896E+00
   64     1 H     9.361812372800E-02  2.799925018160E-01  2.662323438424E+00
   65     1 H    -2.477738726417E+00  2.615791195490E-01  3.520884507008E+00
   66     1 H    -3.109139695530E-01 -4.376512602121E+00  2.167585254312E+00
   67     1 H     2.477738726417E+00 -2.615791195490E-01 -3.520884507008E+00
   68     1 H     3.109139695530E-01  4.376512602131E+00 -2.167585254372E+00
   69     1 H     2.556755741939E+00 -7.910405166230E-01  1.108492114205E+00
   70     1 H     1.817523989871E+00  3.847051205057E+00  4.548189060944E+00
   71     1 H    -2.556755741939E+00  7.910405166230E-01 -1.108492114205E+00
   72     1 H    -1.817523989871E+00 -3.847051205047E+00 -4.548189061004E+00
   73     1 H    -2.932607495924E+00 -8.316567725920E-01  1.724838691827E+00
   74     1 H     1.439547999540E-01  3.806434949088E+00  3.963631069493E+00
   75     1 H     2.932607495924E+00  8.316567725920E-01 -1.724838691827E+00
   76     1 H    -1.439547999540E-01 -3.806434949078E+00 -3.963631069553E+00
   77     1 H     3.061791680880E+00 -2.048163691236E+00  2.203356784841E+00
   78     1 H     1.312488050930E+00  2.589928030444E+00  3.453324390308E+00
   79     1 H    -3.061791680880E+00  2.048163691236E+00 -2.203356784841E+00
   80     1 H    -1.312488050930E+00 -2.589928030434E+00 -3.453324390368E+00

 *******************************************************************************
 STARTING BASIS SET HANDLING 
 *******************************************************************************

 Loading internal basis set: DEF2-MSVP           

 Please cite in your publication:
 Fully Optimized Contracted Gaussian Basis Sets for Atoms Li to Kr. A. Schaefer, H. Horn and R. Ahlrichs; J. Chem. Phys. 97, 2571 (1992).                                                                                                                         
 S. Grimme, J. G. Brandenburg, C. Bannwarth, and A. Hansen, J. Chem. Phys., 143, 054107 (2015).                                                                                                                                                                  

 *******************************************************************************
 LOCAL ATOMIC FUNCTIONS BASIS SET
 *******************************************************************************
   ATOM   X(AU)   Y(AU)   Z(AU)  N. TYPE  EXPONENT  S COEF   P COEF   D/F/G COEF
 *******************************************************************************
   1 O    3.778   7.548  -6.167
                                  1 S  
                                         6.773E+03 1.727E-03 0.000E+00 0.000E+00
                                         1.017E+03 1.325E-02 0.000E+00 0.000E+00
                                         2.313E+02 6.603E-02 0.000E+00 0.000E+00
                                         6.501E+01 2.353E-01 0.000E+00 0.000E+00
                                         2.050E+01 5.498E-01 0.000E+00 0.000E+00
                                  2 S  
                                         6.716E+00 1.000E+00 0.000E+00 0.000E+00
                                  3 S  
                                         1.147E+00 1.000E+00 0.000E+00 0.000E+00
                                  4 S  
                                         3.342E-01 1.000E+00 0.000E+00 0.000E+00
                           5-     7 P  
                                         1.769E+01 0.000E+00 4.359E-02 0.000E+00
                                         3.854E+00 0.000E+00 2.318E-01 0.000E+00
                                         1.047E+00 0.000E+00 5.146E-01 0.000E+00
                           8-    10 P  
                                         2.759E-01 0.000E+00 1.000E+00 0.000E+00
                          11-    15 D  
                                         8.000E-01 0.000E+00 0.000E+00 1.000E+00
   2 O    1.492  -1.217  -4.582
   3 O   -3.778  -7.548   6.167
   4 O   -1.492   1.217   4.582
   5 O    2.956  -0.033   6.478
   6 O    5.310   8.732   4.212
   7 O   -2.956   0.033  -6.478
   8 O   -5.310  -8.732  -4.212
   9 N   -6.455   0.760   7.327
                                121 S  
                                         5.072E+03 1.707E-03 0.000E+00 0.000E+00
                                         7.614E+02 1.309E-02 0.000E+00 0.000E+00
                                         1.732E+02 6.510E-02 0.000E+00 0.000E+00
                                         4.867E+01 2.305E-01 0.000E+00 0.000E+00
                                         1.533E+01 5.330E-01 0.000E+00 0.000E+00
                                122 S  
                                         5.019E+00 1.000E+00 0.000E+00 0.000E+00
                                123 S  
                                         8.355E-01 1.000E+00 0.000E+00 0.000E+00
                                124 S  
                                         2.463E-01 1.000E+00 0.000E+00 0.000E+00
                         125-   127 P  
                                         1.355E+01 0.000E+00 4.063E-02 0.000E+00
                                         2.918E+00 0.000E+00 2.209E-01 0.000E+00
                                         7.983E-01 0.000E+00 5.186E-01 0.000E+00
                         128-   130 P  
                                         2.190E-01 0.000E+00 1.000E+00 0.000E+00
                         131-   135 D  
                                         8.000E-01 0.000E+00 0.000E+00 1.000E+00
  10 N    1.186  -8.005   3.423
  11 N    6.455  -0.760  -7.327
  12 N   -1.186   8.005  -3.423
  13 C   -6.626   2.421   9.394
                                181 S  
                                         3.624E+03 1.634E-03 0.000E+00 0.000E+00
                                         5.440E+02 1.252E-02 0.000E+00 0.000E+00
                                         1.237E+02 6.211E-02 0.000E+00 0.000E+00
                                         3.476E+01 2.182E-01 0.000E+00 0.000E+00
                                         1.093E+01 4.980E-01 0.000E+00 0.000E+00
                                182 S  
                                         3.574E+00 1.000E+00 0.000E+00 0.000E+00
                                183 S  
                                         5.748E-01 1.000E+00 0.000E+00 0.000E+00
                                184 S  
                                         1.730E-01 1.000E+00 0.000E+00 0.000E+00
                         185-   187 P  
                                         9.443E+00 0.000E+00 3.790E-02 0.000E+00
                                         2.002E+00 0.000E+00 2.082E-01 0.000E+00
                                         5.463E-01 0.000E+00 5.047E-01 0.000E+00
                         188-   190 P  
                                         1.520E-01 0.000E+00 1.000E+00 0.000E+00
                         191-   195 D  
                                         8.000E-01 0.000E+00 0.000E+00 1.000E+00
  14 C    1.356  -6.344   1.356
  15 C    6.626  -2.421  -9.394
  16 C   -1.356   6.344  -1.356
  17 C    1.899   2.492 -10.420
  18 C    3.371  -6.273  -0.330
  19 C   -1.899  -2.492  10.420
  20 C   -3.371   6.273   0.330
  21 C    1.892   4.210  -8.440
  22 C    3.378  -4.555  -2.309
  23 C   -1.892  -4.210   8.440
  24 C   -3.378   4.555   2.309
  25 C    3.897   5.873  -8.083
  26 C    1.372  -2.892  -2.666
  27 C   -3.897  -5.873   8.083
  28 C   -1.372   2.892   2.666
  29 C    5.940   5.759  -9.737
  30 C   -0.670  -3.005  -1.013
  31 C   -5.940  -5.759   9.737
  32 C    0.670   3.005   1.013
  33 C   -4.604   4.059   9.779
  34 C   -0.666  -4.706   0.970
  35 C    4.604  -4.059  -9.779
  36 C    0.666   4.706  -0.970
  37 C    5.206  -0.300   5.939
  38 C    3.061   8.464   4.751
  39 C   -5.206   0.300  -5.939
  40 C   -3.061  -8.464  -4.751
  41 C    6.029  -1.875   3.724
  42 C    2.237   6.890   6.965
  43 C   -6.029   1.875  -3.724
  44 C   -2.237  -6.890  -6.965
  45 H    0.319   1.223 -10.614
                                661 S  
                                         1.874E+01 1.968E-02 0.000E+00 0.000E+00
                                         2.826E+00 1.380E-01 0.000E+00 0.000E+00
                                         6.401E-01 4.783E-01 0.000E+00 0.000E+00
                                662 S  
                                         1.756E-01 1.000E+00 0.000E+00 0.000E+00
  46 H    4.951  -7.542  -0.136
  47 H   -0.319  -1.223  10.614
  48 H   -4.951   7.542   0.136
  49 H    0.299   4.231  -7.156
  50 H    4.971  -4.534  -3.593
  51 H   -0.299  -4.231   7.156
  52 H   -4.971   4.534   3.593
  53 H   -6.007   7.026  -9.452
  54 H   -2.259  -1.739  -1.238
  55 H    6.007  -7.026   9.452
  56 H    2.259   1.739   1.238
  57 H   -2.998   4.006   8.514
  58 H   -2.272  -4.759   2.236
  59 H    2.998  -4.006  -8.514
  60 H    2.272   4.759  -2.236
  61 H    5.447   8.236  -5.719
  62 H   -0.177  -0.529  -5.031
  63 H   -5.447  -8.236   5.719
  64 H    0.177   0.529   5.031
  65 H   -4.682   0.494   6.654
  66 H   -0.588  -8.270   4.096
  67 H    4.682  -0.494  -6.654
  68 H    0.588   8.270  -4.096
  69 H    4.832  -1.495   2.095
  70 H    3.435   7.270   8.595
  71 H   -4.832   1.495  -2.095
  72 H   -3.435  -7.270  -8.595
  73 H   -5.542  -1.572   3.259
  74 H    0.272   7.193   7.490
  75 H    5.542   1.572  -3.259
  76 H   -0.272  -7.193  -7.490
  77 H    5.786  -3.870   4.164
  78 H    2.480   4.894   6.526
  79 H   -5.786   3.870  -4.164
  80 H   -2.480  -4.894  -6.526

 *******************************************************************************
 FINISHED BASIS SET HANDLING 
 *******************************************************************************

 INFORMATION **** SET_MPP **** PCRYSTAL CALCULATION
 INFORMATION **** READM2 **** NEW DEFAULT: FOCK/KS MATRIX MIXING SET TO 30 %
 INFORMATION **** READM2 **** NEW DEFAULT: FULL DIRECT SCF MODE
 INFORMATION **** READM2 **** NEW DEFAULT: COULOMB BIPOLAR BUFFER SET TO 32 Mb
 INFORMATION **** READM2 **** NEW DEFAULT: EXCHANGE BIPOLAR BUFFER SET TO 32 Mb

 *******************************************************************************
 NEW DEFAULT: DFT INTEGRATION GRID INCREASED TO XLGRID
 NEW DEFAULT: DIIS ACCELERATOR ACTIVE
 USE KEYWORD NODIIS TO TURN IT OFF
 *******************************************************************************

 INFORMATION **** RDDFTP **** PBEh-3c calculation
 INFORMATION **** RDDFTP **** PBEh hybrid functional combined with D3 and gCP

PLEASE CITE:
(1) PBEh-3c Reference
 S. Grimme, J. G. Brandenburg, C. Bannwarth, and A. Hansen, 
 J. Chem. Phys. 143, 054107 (2015)
(2) DFT-D3 Reference
 S. Grimme, J. Antony, S. Ehrlich, and H. Krieg, J. Chem. Phys. 132, 154104 (2010)
(3) gCP Reference
 H. Kruse and S. Grimme J. Chem. Phys, 136, 154101 (2012)
 J. G. Brandenburg, M. Alessio, B. Civalleri, M. F. Peintinger
 T. Bredow, and S. Grimme, J. Phys. Chem. A, 117, 9282 (2013) 

 WARNING **** RDDFTP **** PBEh-3c has to be combined with def2-mSVP basis set
 WARNING **** RDDFTP **** Note: Harmonic frequencies are scaled by 0.95
 WARNING **** RDDFTP **** as recommended in original publication
 INFORMATION **** TOLDEE **** SCF TOL ON TOTAL ENERGY SET TO           9
 INFORMATION **** TOLINTEG **** COULOMB AND EXCHANGE SERIES TOLERANCES MODIFIED
 INFORMATION **** MAXCYCLE **** MAX NUMBER OF SCF CYCLES SET TO          30
 WARNING **** READM2 **** PROBABLE LOSS IN FREQCALC ACCURACY; SCF TOL LT          10
 *******************************************************************************
 N. OF ATOMS PER CELL        80  COULOMB OVERLAP TOL         (T1) 10**   -8
 NUMBER OF SHELLS           380  COULOMB PENETRATION TOL     (T2) 10**   -8
 NUMBER OF AO               732  EXCHANGE OVERLAP TOL        (T3) 10**   -8
 N. OF ELECTRONS PER CELL   320  EXCHANGE PSEUDO OVP (F(G))  (T4) 10**   -8
 CORE ELECTRONS PER CELL     88  EXCHANGE PSEUDO OVP (P(G))  (T5) 10**  -24
 N. OF SYMMETRY OPERATORS     4  POLE ORDER IN MONO ZONE                  4
 *******************************************************************************
 TYPE OF CALCULATION :  RESTRICTED CLOSED SHELL
 KOHN-SHAM HAMILTONIAN

 (EXCHANGE)[CORRELATION] FUNCTIONAL:(PBEh-3c)[PBEh-3c]


 HYBRID EXCHANGE - PERCENTAGE OF FOCK EXCHANGE    42.0000

 CAPPA:IS1  4;IS2  4;IS3  2; K PTS MONK NET  18; SYMMOPS:K SPACE   4;G SPACE   4

 *******************************************************************************
 MAX NUMBER OF SCF CYCLES      30  CONVERGENCE ON DELTAP        10**-19
 WEIGHT OF F(I) IN F(I+1)      50% CONVERGENCE ON ENERGY        10**- 9
 SHRINK. FACT.(MONKH.)    4  4  2  NUMBER OF K POINTS IN THE IBZ     18
 SHRINKING FACTOR(GILAT NET)    4  NUMBER OF K POINTS(GILAT NET)     18
 *******************************************************************************
 *** K POINTS COORDINATES (OBLIQUE COORDINATES IN UNITS OF IS =  4)
   1-R(  0  0  0)   2-C(  1  0  0)   3-R(  2  0  0)   4-C(  0  1  0)
   5-C(  1  1  0)   6-C(  2  1  0)   7-R(  0  2  0)   8-C(  1  2  0)
   9-R(  2  2  0)  10-R(  0  0  1)  11-C(  1  0  1)  12-R(  2  0  1)
  13-C(  0  1  1)  14-C(  1  1  1)  15-C(  2  1  1)  16-R(  0  2  1)
  17-C(  1  2  1)  18-R(  2  2  1)

 DIRECT LATTICE VECTORS COMPON. (A.U.)     RECIP. LATTICE VECTORS COMPON. (A.U.) 
        X            Y            Z              X            Y            Z
   13.5359806    0.0000000   -0.0600717      0.4651961   -0.0000000    0.2280526
    0.0000000   17.5294463   -0.0000000     -0.0000000    0.3584360   -0.0000000
  -10.5395798    0.0000000   21.4992999      0.0012998    0.0000000    0.2928879

 DISK SPACE FOR EIGENVECTORS (FTN 10)    15003072 REALS

 SYMMETRY ADAPTION OF THE BLOCH FUNCTIONS ENABLED
 TTTTTTTTTTTTTTTTTTTTTTTTTTTTTT gordsh1     TELAPSE       41.32 TCPU        0.17

 MATRIX SIZE: P(G) 2266544, F(G)  212282, P(G) IRR  287431, F(G) IRR   53853
 MAX G-VECTOR INDEX FOR 1- AND 2-ELECTRON INTEGRALS 113

 TTTTTTTTTTTTTTTTTTTTTTTTTTTTTT INPUT       TELAPSE       41.37 TCPU        0.22

 NEIGHBORS OF THE NON-EQUIVALENT ATOMS

 N = NUMBER OF NEIGHBORS AT DISTANCE R
    ATOM  N     R/ANG      R/AU   NEIGHBORS (ATOM LABELS AND CELL INDICES)
   1 O    1     0.9843     1.8600   61 H    0 0 0
   1 O    1     1.3482     2.5477   25 C    0 0 0
   1 O    1     2.0488     3.8716   68 H    0 0 0
   1 O    1     2.3586     4.4571   21 C    0 0 0
   1 O    1     2.4026     4.5403   29 C    0 0 0
   1 O    1     2.5969     4.9075   49 H    0 0 0

   5 O    1     1.2325     2.3290   37 C    0 0 0
   5 O    1     1.6843     3.1829   64 H    0 0 0
   5 O    1     2.2617     4.2739    9 N    1 0 0
   5 O    1     2.3914     4.5190   41 C    0 0 0
   5 O    1     2.4023     4.5398   45 H    1 0 1
   5 O    1     2.6197     4.9505   78 H    0 0 0

   9 N    1     1.0135     1.9152   65 H    0 0 0
   9 N    1     1.3392     2.5307   37 C   -1 0 0
   9 N    1     1.4062     2.6573   13 C    0 0 0
   9 N    1     2.2617     4.2739    5 O   -1 0 0
   9 N    1     2.3858     4.5085   33 C    0 0 0
   9 N    1     2.4016     4.5383   41 C   -1 0 0

  13 C    1     1.3907     2.6280   17 C    0 0 1
  13 C    1     1.3918     2.6300   33 C    0 0 0
  13 C    1     1.4062     2.6573    9 N    0 0 0
  13 C    1     2.0494     3.8729   65 H    0 0 0
  13 C    1     2.1461     4.0555   57 H    0 0 0
  13 C    1     2.1551     4.0725   45 H    0 0 1

  17 C    1     1.0773     2.0358   45 H    0 0 0
  17 C    1     1.3870     2.6210   21 C    0 0 0
  17 C    1     1.3907     2.6280   13 C    0 0-1
  17 C    1     2.1322     4.0292   49 H    0 0 0
  17 C    1     2.3923     4.5209   33 C    0 0-1
  17 C    1     2.4183     4.5699   25 C    0 0 0

  21 C    1     1.0828     2.0461   49 H    0 0 0
  21 C    1     1.3870     2.6210   17 C    0 0 0
  21 C    1     1.3915     2.6296   25 C    0 0 0
  21 C    1     2.1246     4.0149   45 H    0 0 0
  21 C    1     2.3586     4.4571    1 O    0 0 0
  21 C    1     2.3941     4.5241   29 C    0 0 0

  25 C    1     1.3482     2.5477    1 O    0 0 0
  25 C    1     1.3915     2.6296   21 C    0 0 0
  25 C    1     1.3920     2.6304   29 C    0 0 0
  25 C    1     1.9497     3.6844   61 H    0 0 0
  25 C    1     2.1498     4.0625   49 H    0 0 0
  25 C    1     2.1533     4.0691   53 H    1 0 0

  29 C    1     1.0818     2.0443   53 H    1 0 0
  29 C    1     1.3823     2.6122   33 C    0 0-1
  29 C    1     1.3920     2.6304   25 C    0 0 0
  29 C    1     2.1296     4.0243   57 H    0 0-1
  29 C    1     2.3941     4.5241   21 C    0 0 0
  29 C    1     2.4026     4.5403    1 O    0 0 0

  33 C    1     1.0826     2.0458   57 H    0 0 0
  33 C    1     1.3823     2.6122   29 C    0 0 1
  33 C    1     1.3918     2.6300   13 C    0 0 0
  33 C    1     2.1309     4.0269   53 H    1 0 1
  33 C    1     2.3858     4.5085    9 N    0 0 0
  33 C    1     2.3923     4.5209   17 C    0 0 1

  37 C    1     1.2325     2.3290    5 O    0 0 0
  37 C    1     1.3392     2.5307    9 N    1 0 0
  37 C    1     1.5024     2.8390   41 C    0 0 0
  37 C    1     2.0059     3.7907   65 H    1 0 0
  37 C    1     2.1320     4.0288   77 H    0 0 0
  37 C    1     2.1392     4.0424   69 H    0 0 0

  41 C    1     1.0880     2.0561   73 H    1 0 0
  41 C    1     1.0889     2.0576   69 H    0 0 0
  41 C    1     1.0891     2.0581   77 H    0 0 0
  41 C    1     1.5024     2.8390   37 C    0 0 0
  41 C    1     2.3914     4.5190    5 O    0 0 0
  41 C    1     2.4016     4.5383    9 N    1 0 0

  45 H    1     1.0773     2.0358   17 C    0 0 0
  45 H    1     2.1246     4.0149   21 C    0 0 0
  45 H    1     2.1551     4.0725   13 C    0 0-1
  45 H    1     2.3209     4.3859   47 H   -1 0-1
  45 H    1     2.4023     4.5398    5 O   -1 0-1
  45 H    1     2.4251     4.5828   49 H    0 0 0

  49 H    1     1.0828     2.0461   21 C    0 0 0
  49 H    1     2.1322     4.0292   17 C    0 0 0
  49 H    1     2.1498     4.0625   25 C    0 0 0
  49 H    1     2.4251     4.5828   45 H    0 0 0
  49 H    1     2.5969     4.9075    1 O    0 0 0
  49 H    1     2.6861     5.0760   68 H    0 0 0

  53 H    1     1.0818     2.0443   29 C   -1 0 0
  53 H    1     2.1309     4.0269   33 C   -1 0-1
  53 H    1     2.1533     4.0691   25 C   -1 0 0
  53 H    1     2.2332     4.2202   72 H    0 1 0
  53 H    1     2.3777     4.4931   61 H   -1 0 0
  53 H    1     2.4357     4.6028   57 H   -1 0-1

  57 H    1     1.0826     2.0458   33 C    0 0 0
  57 H    1     2.1296     4.0243   29 C    0 0 1
  57 H    1     2.1461     4.0555   13 C    0 0 0
  57 H    1     2.2840     4.3161   65 H    0 0 0
  57 H    1     2.4357     4.6028   53 H    1 0 1
  57 H    1     2.4763     4.6796   74 H    0 0 0

  61 H    1     0.9843     1.8600    1 O    0 0 0
  61 H    1     1.6843     3.1829    8 O    1 1 0
  61 H    1     1.9497     3.6844   25 C    0 0 0
  61 H    1     2.3777     4.4931   53 H    1 0 0
  61 H    1     2.5113     4.7457   29 C    0 0 0
  61 H    1     2.7110     5.1230   68 H    0 0 0

  65 H    1     1.0135     1.9152    9 N    0 0 0
  65 H    1     2.0059     3.7907   37 C   -1 0 0
  65 H    1     2.0488     3.8716    4 O    0 0 0
  65 H    1     2.0494     3.8729   13 C    0 0 0
  65 H    1     2.1512     4.0653   73 H    0 0 0
  65 H    1     2.2840     4.3161   57 H    0 0 0

  69 H    1     1.0889     2.0576   41 C    0 0 0
  69 H    1     1.7419     3.2917   77 H    0 0 0
  69 H    1     1.7732     3.3508   73 H    1 0 0
  69 H    1     2.1392     4.0424   37 C    0 0 0
  69 H    1     2.2332     4.2202   56 H    0 0 0
  69 H    1     2.6388     4.9867    5 O    0 0 0

  73 H    1     1.0880     2.0561   41 C   -1 0 0
  73 H    1     1.7623     3.3303   77 H   -1 0 0
  73 H    1     1.7732     3.3508   69 H   -1 0 0
  73 H    1     2.1512     4.0653   65 H    0 0 0
  73 H    1     2.1751     4.1103   37 C   -1 0 0
  73 H    1     2.4763     4.6796   58 H    0 0 0

  77 H    1     1.0891     2.0581   41 C    0 0 0
  77 H    1     1.7419     3.2917   69 H    0 0 0
  77 H    1     1.7623     3.3303   73 H    1 0 0
  77 H    1     2.1320     4.0288   37 C    0 0 0
  77 H    1     2.6197     4.9505    6 O    0-1 0
  77 H    1     2.7289     5.1570   63 H    1 0 0


 SYMMETRY ALLOWED INTERNAL DEGREE(S) OF FREEDOM:  60
 TTTTTTTTTTTTTTTTTTTTTTTTTTTTTT SYMM        TELAPSE       41.60 TCPU        0.43
 TTTTTTTTTTTTTTTTTTTTTTTTTTTTTT INT_SCREEN  TELAPSE       41.66 TCPU        0.49

 *******************************************************************************
 *                                                                             *
 *                                                                             *
 *         FFFFF  RRRR   EEEE   QQQ   U   U  EEEE  N   N   CCC  Y   Y          *
 *         F      R   R  E     Q   Q  U   U  E     NN  N  C      Y Y           *
 *         FFF    RRRR   EEEE  Q   Q  U   U  EEEE  N N N  C       Y            *
 *         F      R   R  E     Q  QQ  U   U  E     N  NN  C       Y            *
 *         F      R   R  EEEE   QQ Q   UUU   EEEE  N   N   CCC    Y            *
 *                                                                             *
 *                                                                             *
 * CALCULATION OF PHONON FREQUENCIES AT THE GAMMA POINT.                       *
 *                                                                             *
 * SYMMETRY IS EXPLOITED TO BUILD THE TOTAL HESSIAN MATRIX.                    *
 * (F. PASCALE PHD THESIS TURIN-PARIS 2002)                                    *
 *                                                                             *
 *******************************************************************************


 * INTENSITIES COMPUTED VIA THE BERRY PHASE APPROACH                           *
 *                                                                             *
 * REFERENCES TO BE QUOTED WHEN USING THIS MODULE:                             *
 *                                                                             *
 * F. Pascale, C.M. Zicovich-Wilson, F. Lopez, B. Civalleri                    *
 * R. Orlando, R. Dovesi                                                       *
 * The calculation of the vibration frequencies of crystalline                 *
 * compounds and its implementation in the CRYSTAL code                        *
 * J. Comput. Chem. 25 (2004) 888-897                                          *
 *                                                                             *
 * C.M. Zicovich-Wilson, F. Pascale, C. Roetti, V.R. Saunders,                 *
 * R. Orlando, R. Dovesi                                                       *
 * The calculation of the vibration frequencies of alpha-quartz:               *
 * the effect of hamiltonian and basis set                                     *
 * J. Comput. Chem. 25 (2004) 1873-1881                                        *
 *******************************************************************************



 ATOMS ISOTOPIC MASS (AMU) FOR FREQUENCY CALCULATION 

    1 O      15.9949    2 O      15.9949    3 O      15.9949    4 O      15.9949
    5 O      15.9949    6 O      15.9949    7 O      15.9949    8 O      15.9949
    9 N      14.0031   10 N      14.0031   11 N      14.0031   12 N      14.0031
   13 C      12.0000   14 C      12.0000   15 C      12.0000   16 C      12.0000
   17 C      12.0000   18 C      12.0000   19 C      12.0000   20 C      12.0000
   21 C      12.0000   22 C      12.0000   23 C      12.0000   24 C      12.0000
   25 C      12.0000   26 C      12.0000   27 C      12.0000   28 C      12.0000
   29 C      12.0000   30 C      12.0000   31 C      12.0000   32 C      12.0000
   33 C      12.0000   34 C      12.0000   35 C      12.0000   36 C      12.0000
   37 C      12.0000   38 C      12.0000   39 C      12.0000   40 C      12.0000
   41 C      12.0000   42 C      12.0000   43 C      12.0000   44 C      12.0000
   45 H       1.0078   46 H       1.0078   47 H       1.0078   48 H       1.0078
   49 H       1.0078   50 H       1.0078   51 H       1.0078   52 H       1.0078
   53 H       1.0078   54 H       1.0078   55 H       1.0078   56 H       1.0078
   57 H       1.0078   58 H       1.0078   59 H       1.0078   60 H       1.0078
   61 H       1.0078   62 H       1.0078   63 H       1.0078   64 H       1.0078
   65 H       1.0078   66 H       1.0078   67 H       1.0078   68 H       1.0078
   69 H       1.0078   70 H       1.0078   71 H       1.0078   72 H       1.0078
   73 H       1.0078   74 H       1.0078   75 H       1.0078   76 H       1.0078
   77 H       1.0078   78 H       1.0078   79 H       1.0078   80 H       1.0078

 INFORMATION CONCERNING THE SCF+GRADIENT CALCULATIONS REQUIRED FOR
 GENERATING FREQUENCIES. IN PRINCIPLE 3N+1 SCF + GRADIENT
 CALCULATIONS  ARE REQUIRED;
 FOR EACH OF THEM THE REMAINING POINT SYMMETRY IS INDICATED.
 POINT SYMMETRY PERMITS TO GENERATE GRADIENTS FOR DISPLACEMENT B 
 STARTING FROM THE GRADIENT GENERATED BY DISPLACEMENT A.

   N   LABEL SYMBOL DISPLACEMENT     SYM. 

   1     EQUILIBRIUM GEOMETRY            4

   2      1   O            DX           1
   3      1   O            DY           1
   4      1   O            DZ           1
   5      5   O            DX           1
   6      5   O            DY           1
   7      5   O            DZ           1
   8      9   N            DX           1
   9      9   N            DY           1
  10      9   N            DZ           1
  11     13   C            DX           1
  12     13   C            DY           1
  13     13   C            DZ           1
  14     17   C            DX           1
  15     17   C            DY           1
  16     17   C            DZ           1
  17     21   C            DX           1
  18     21   C            DY           1
  19     21   C            DZ           1
  20     25   C            DX           1
  21     25   C            DY           1
  22     25   C            DZ           1
  23     29   C            DX           1
  24     29   C            DY           1
  25     29   C            DZ           1
  26     33   C            DX           1
  27     33   C            DY           1
  28     33   C            DZ           1
  29     37   C            DX           1
  30     37   C            DY           1
  31     37   C            DZ           1
  32     41   C            DX           1
  33     41   C            DY           1
  34     41   C            DZ           1
  35     45   H            DX           1
  36     45   H            DY           1
  37     45   H            DZ           1
  38     49   H            DX           1
  39     49   H            DY           1
  40     49   H            DZ           1
  41     53   H            DX           1
  42     53   H            DY           1
  43     53   H            DZ           1
  44     57   H            DX           1
  45     57   H            DY           1
  46     57   H            DZ           1
  47     61   H            DX           1
  48     61   H            DY           1
  49     61   H            DZ           1
  50     65   H            DX           1
  51     65   H            DY           1
  52     65   H            DZ           1
  53     69   H            DX           1
  54     69   H            DY           1
  55     69   H            DZ           1
  56     73   H            DX           1
  57     73   H            DY           1
  58     73   H            DZ           1
  59     77   H            DX           1
  60     77   H            DY           1
  61     77   H            DZ           1
 USE OF RESIDUAL SYMMETRY AFTER DISPLACEMENT

 NUMERICAL GRADIENT COMPUTED WITH A SINGLE DISPLACEMENT (+DX) FOR EACH
 CARTESIAN COORDINATE WITH RESPECT TO THE EQUILIBRIUM CONFIGURATION
 DX=  0.003 ANGSTROM
 NUMBER OF IRREDUCIBLE ATOMS                    20
 NUMBER OF SCF+GRADIENT CALCULATIONS            61

  ATOM  SYMOP  ORDER
    1      1      1
    5      1      1
    9      1      1
   13      1      1
   17      1      1
   21      1      1
   25      1      1
   29      1      1
   33      1      1
   37      1      1
   41      1      1
   45      1      1
   49      1      1
   53      1      1
   57      1      1
   61      1      1
   65      1      1
   69      1      1
   73      1      1
   77      1      1

 ATOM  : IRREDUCIBLE ATOM
 SYMOP : NUMBER OF SYMMETRY OPERATORS THAT DOESN'T MOVE THE IRREDUCIBLE ATOM
 ORDER : MAXIMUM ORDER AMONG THE OPERATORS OF THE IRREDUCIBLE ATOM

 *******************************************************************************


 GCALCO - MAX INDICES DIRECT LATTICE VECTOR    20    14    11
 NO.OF VECTORS CREATED 6999 STARS 1868 RMAX   203.98008 BOHR

 CAPPA:IS1  4;IS2  4;IS3  2; K PTS MONK NET  18; SYMMOPS:K SPACE   4;G SPACE   4

 TTTTTTTTTTTTTTTTTTTTTTTTTTTTTT gordsh1     TELAPSE       41.77 TCPU        0.55

 MATRIX SIZE: P(G) 2266544, F(G)  212282, P(G) IRR  287431, F(G) IRR   53853
 MAX G-VECTOR INDEX FOR 1- AND 2-ELECTRON INTEGRALS 113

 TTTTTTTTTTTTTTTTTTTTTTTTTTTTTT INPUT       TELAPSE       41.80 TCPU        0.59

 SYMMETRY ALLOWED INTERNAL DEGREE(S) OF FREEDOM:  60
 TTTTTTTTTTTTTTTTTTTTTTTTTTTTTT SYMM        TELAPSE       42.38 TCPU        1.16
 TTTTTTTTTTTTTTTTTTTTTTTTTTTTTT INT_SCREEN  TELAPSE       42.43 TCPU        1.22
 INFORMATION **** EXCBUF **** EXCH. BIPO BUFFER: WORDS USED =     3864879

 DFT PARAMETERS

     ATOM       ELECTRONS   NET CHARGE   R(ANGSTROM)
   1   8  O       8.0000      0.0000     0.74000000
   9   7  N       7.0000      0.0000     0.74000000
  13   6  C       6.0000      0.0000     0.77000000
  45   1  H       1.0000      0.0000     1.11000000

 SIZE OF GRID=     993526
 TTTTTTTTTTTTTTTTTTTTTTTTTTTTTT MAKE_GRID2  TELAPSE       55.06 TCPU       13.81
 BECKE WEIGHT FUNCTION
 RADSAFE =     2.00
 TOLERANCES - DENSITY:10**- 6; POTENTIAL:10**- 9; GRID WGT:10**-14

 RADIAL INTEGRATION  - INTERVALS (POINTS,UPPER LIMIT):            1( 99,  4.0*R)

 ANGULAR INTEGRATION - INTERVALS (ACCURACY LEVEL [N. POINTS] UPPER LIMIT):
  1(  6[ 146]   0.2)  2( 11[ 302]   0.5)  3( 14[ 590]   0.9)  4( 18[1454]   3.5)
  5( 14[ 590]9999.0)
 TTTTTTTTTTTTTTTTTTTTTTTTTTTTTT INT_CALC    TELAPSE       55.11 TCPU       13.86

 *******************************************************************************
 F1 HA freq - PBEh-3c                                                            
 CRYSTAL - SCF - TYPE OF CALCULATION :  RESTRICTED CLOSED SHELL
 *******************************************************************************

 CAPPA:IS1  4;IS2  4;IS3  2; K PTS MONK NET  18; SYMMOPS:K SPACE   4;G SPACE   4

 TTTTTTTTTTTTTTTTTTTTTTTTTTTTTT SDIK        TELAPSE       55.92 TCPU       14.66

 AAAAAAAAAAAAAAAAAAAAAAAAAAAAAAAAAAAAAAAAAAAAAAAAAAAAAAAAAAAAAAAAAAAAAAAAAAAAAAA
         ATOMIC WAVEFUNCTION(S)


 NUCLEAR CHARGE  8.0  SYMMETRY SPECIES            S    P
 N. ELECTRONS    8.0  NUMBER OF PRIMITIVE GTOS    8    4
                      NUMBER OF CONTRACTED GTOS   4    2
                      NUMBER OF CLOSED SHELLS     2    0
                      OPEN SHELL OCCUPATION       0    4

  ZNUC SCFIT  TOTAL HF ENERGY   KINETIC ENERGY   VIRIAL THEOREM ACCURACY
   8.0  12   -7.477373220E+01  7.477365593E+01 -2.000001020E+00  3.8E-06

 NUCLEAR CHARGE  7.0  SYMMETRY SPECIES            S    P
 N. ELECTRONS    7.0  NUMBER OF PRIMITIVE GTOS    8    4
                      NUMBER OF CONTRACTED GTOS   4    2
                      NUMBER OF CLOSED SHELLS     2    0
                      OPEN SHELL OCCUPATION       0    3

  ZNUC SCFIT  TOTAL HF ENERGY   KINETIC ENERGY   VIRIAL THEOREM ACCURACY
   7.0   9   -5.437948210E+01  5.437948297E+01 -1.999999984E+00  1.2E-06

 NUCLEAR CHARGE  6.0  SYMMETRY SPECIES            S    P
 N. ELECTRONS    6.0  NUMBER OF PRIMITIVE GTOS    8    4
                      NUMBER OF CONTRACTED GTOS   4    2
                      NUMBER OF CLOSED SHELLS     2    0
                      OPEN SHELL OCCUPATION       0    2

  ZNUC SCFIT  TOTAL HF ENERGY   KINETIC ENERGY   VIRIAL THEOREM ACCURACY
   6.0   9   -3.767634636E+01  3.767630973E+01 -2.000000972E+00  4.2E-06

 NUCLEAR CHARGE  1.0  SYMMETRY SPECIES            S
 N. ELECTRONS    1.0  NUMBER OF PRIMITIVE GTOS    4
                      NUMBER OF CONTRACTED GTOS   2
                      NUMBER OF CLOSED SHELLS     0
                      OPEN SHELL OCCUPATION       1

  ZNUC SCFIT  TOTAL HF ENERGY   KINETIC ENERGY   VIRIAL THEOREM ACCURACY
   1.0   1   -4.977266687E-01  5.190767460E-01 -1.958869132E+00  4.5E-17

 AAAAAAAAAAAAAAAAAAAAAAAAAAAAAAAAAAAAAAAAAAAAAAAAAAAAAAAAAAAAAAAAAAAAAAAAAAAAAAA

 TTTTTTTTTTTTTTTTTTTTTTTTTTTTTT MOQGAD      TELAPSE       56.42 TCPU       15.16
 TTTTTTTTTTTTTTTTTTTTTTTTTTTTTT SHELLXN     TELAPSE       70.16 TCPU       28.53
 TTTTTTTTTTTTTTTTTTTTTTTTTTTTTT MONMO3      TELAPSE       72.15 TCPU       30.52
 NUMERICALLY INTEGRATED DENSITY    319.9998383460
 TTTTTTTTTTTTTTTTTTTTTTTTTTTTTT NUMDFT      TELAPSE       72.93 TCPU       31.29
 CYC   0 ETOT(AU) -2.070747730485E+03 DETOT -2.07E+03 tst  0.00E+00 PX  1.00E+00
 TTTTTTTTTTTTTTTTTTTTTTTTTTTTTT DIIS        TELAPSE       73.00 TCPU       31.36
 TTTTTTTTTTTTTTTTTTTTTTTTTTTTTT FDIK        TELAPSE       85.46 TCPU       43.71
 INSULATING STATE
 TOP OF VALENCE BANDS -    BAND    160; K    1; EIG -2.8110328E-01 AU
 BOTTOM OF VIRTUAL BANDS - BAND    161; K    7; EIG -1.2591142E-01 AU
 INDIRECT ENERGY BAND GAP:   4.2230 eV
 BOTTOM OF VIRTUAL BANDS - BAND    161; K    1; EIG -1.2081244E-01 AU
 TTTTTTTTTTTTTTTTTTTTTTTTTTTTTT PDIG        TELAPSE       86.21 TCPU       44.46
 TTTTTTTTTTTTTTTTTTTTTTTTTTTTTT MOQGAD      TELAPSE       86.22 TCPU       44.47
 TTTTTTTTTTTTTTTTTTTTTTTTTTTTTT SHELLXN     TELAPSE      100.59 TCPU       58.37
 TTTTTTTTTTTTTTTTTTTTTTTTTTTTTT MONMO3      TELAPSE      102.47 TCPU       60.25
 NUMERICALLY INTEGRATED DENSITY    319.9998708758
 TTTTTTTTTTTTTTTTTTTTTTTTTTTTTT NUMDFT      TELAPSE      103.65 TCPU       61.42
 CYC   1 ETOT(AU) -2.057250277211E+03 DETOT  1.35E+01 tst  0.00E+00 PX  1.00E+00
 TTTTTTTTTTTTTTTTTTTTTTTTTTTTTT DIIS        TELAPSE      103.72 TCPU       61.50
 DIIS TEST: 0.17484E+01 AT SCF   CYCLE   1 - MIX   50 %
 TTTTTTTTTTTTTTTTTTTTTTTTTTTTTT FDIK        TELAPSE      107.63 TCPU       65.32
 INSULATING STATE
 TOP OF VALENCE BANDS -    BAND    160; K   10; EIG -2.4859338E-01 AU
 TOP OF VALENCE BANDS -    BAND    160; K    1; EIG -2.4871530E-01 AU
 BOTTOM OF VIRTUAL BANDS - BAND    161; K    7; EIG -4.7261398E-02 AU
 INDIRECT ENERGY BAND GAP:   5.4785 eV
 BOTTOM OF VIRTUAL BANDS - BAND    161; K    1; EIG -4.7019671E-02 AU
 TTTTTTTTTTTTTTTTTTTTTTTTTTTTTT PDIG        TELAPSE      108.38 TCPU       66.07
 TTTTTTTTTTTTTTTTTTTTTTTTTTTTTT MOQGAD      TELAPSE      108.39 TCPU       66.07
 TTTTTTTTTTTTTTTTTTTTTTTTTTTTTT SHELLXN     TELAPSE      122.68 TCPU       79.92
 TTTTTTTTTTTTTTTTTTTTTTTTTTTTTT MONMO3      TELAPSE      124.86 TCPU       82.10
 NUMERICALLY INTEGRATED DENSITY    319.9998643956
 TTTTTTTTTTTTTTTTTTTTTTTTTTTTTT NUMDFT      TELAPSE      126.06 TCPU       83.29
 CYC   2 ETOT(AU) -2.057711820159E+03 DETOT -4.62E-01 tst  9.76E-04 PX  1.27E-01
 TTTTTTTTTTTTTTTTTTTTTTTTTTTTTT DIIS        TELAPSE      126.14 TCPU       83.37
 DIIS TEST: 0.14699E+00 AT SCF   CYCLE   2 - DIIS ACTIVE - HISTORY:     2 CYCLES
 TTTTTTTTTTTTTTTTTTTTTTTTTTTTTT FDIK        TELAPSE      129.26 TCPU       86.40
 INSULATING STATE
 TOP OF VALENCE BANDS -    BAND    160; K   10; EIG -2.3959070E-01 AU
 TOP OF VALENCE BANDS -    BAND    160; K    1; EIG -2.3969580E-01 AU
 BOTTOM OF VIRTUAL BANDS - BAND    161; K   16; EIG -5.4565569E-03 AU
 INDIRECT ENERGY BAND GAP:   6.3711 eV
 BOTTOM OF VIRTUAL BANDS - BAND    161; K    1; EIG -1.5297748E-03 AU
 TTTTTTTTTTTTTTTTTTTTTTTTTTTTTT PDIG        TELAPSE      130.01 TCPU       87.15
 TTTTTTTTTTTTTTTTTTTTTTTTTTTTTT MOQGAD      TELAPSE      130.02 TCPU       87.16
 TTTTTTTTTTTTTTTTTTTTTTTTTTTTTT SHELLXN     TELAPSE      143.93 TCPU      100.64
 TTTTTTTTTTTTTTTTTTTTTTTTTTTTTT MONMO3      TELAPSE      145.89 TCPU      102.59
 NUMERICALLY INTEGRATED DENSITY    319.9998585027
 TTTTTTTTTTTTTTTTTTTTTTTTTTTTTT NUMDFT      TELAPSE      146.85 TCPU      103.54
 CYC   3 ETOT(AU) -2.057734106896E+03 DETOT -2.23E-02 tst  2.08E-04 PX  4.16E-02
 TTTTTTTTTTTTTTTTTTTTTTTTTTTTTT DIIS        TELAPSE      146.90 TCPU      103.60
 DIIS TEST: 0.82248E-01 AT SCF   CYCLE   3 - DIIS ACTIVE - HISTORY:     3 CYCLES
 TTTTTTTTTTTTTTTTTTTTTTTTTTTTTT FDIK        TELAPSE      150.24 TCPU      106.84
 INSULATING STATE
 TOP OF VALENCE BANDS -    BAND    160; K   10; EIG -2.4966178E-01 AU
 TOP OF VALENCE BANDS -    BAND    160; K    1; EIG -2.4984550E-01 AU
 BOTTOM OF VIRTUAL BANDS - BAND    161; K   16; EIG -1.2248345E-02 AU
 INDIRECT ENERGY BAND GAP:   6.4604 eV
 BOTTOM OF VIRTUAL BANDS - BAND    161; K    1; EIG -7.2362519E-03 AU
 TTTTTTTTTTTTTTTTTTTTTTTTTTTTTT PDIG        TELAPSE      150.97 TCPU      107.57
 TTTTTTTTTTTTTTTTTTTTTTTTTTTTTT MOQGAD      TELAPSE      150.98 TCPU      107.58
 TTTTTTTTTTTTTTTTTTTTTTTTTTTTTT SHELLXN     TELAPSE      165.03 TCPU      121.08
 TTTTTTTTTTTTTTTTTTTTTTTTTTTTTT MONMO3      TELAPSE      167.00 TCPU      123.05
 NUMERICALLY INTEGRATED DENSITY    319.9998614789
 TTTTTTTTTTTTTTTTTTTTTTTTTTTTTT NUMDFT      TELAPSE      168.17 TCPU      124.21
 CYC   4 ETOT(AU) -2.057752208642E+03 DETOT -1.81E-02 tst  1.18E-04 PX  3.18E-02
 TTTTTTTTTTTTTTTTTTTTTTTTTTTTTT DIIS        TELAPSE      168.27 TCPU      124.32
 DIIS TEST: 0.11135E-01 AT SCF   CYCLE   4 - DIIS ACTIVE - HISTORY:     4 CYCLES
 TTTTTTTTTTTTTTTTTTTTTTTTTTTTTT FDIK        TELAPSE      171.39 TCPU      127.35
 INSULATING STATE
 TOP OF VALENCE BANDS -    BAND    160; K   10; EIG -2.4722546E-01 AU
 TOP OF VALENCE BANDS -    BAND    160; K    1; EIG -2.4739248E-01 AU
 BOTTOM OF VIRTUAL BANDS - BAND    161; K   16; EIG -1.0087871E-02 AU
 INDIRECT ENERGY BAND GAP:   6.4528 eV
 BOTTOM OF VIRTUAL BANDS - BAND    161; K    1; EIG -5.8284813E-03 AU
 TTTTTTTTTTTTTTTTTTTTTTTTTTTTTT PDIG        TELAPSE      172.14 TCPU      128.09
 TTTTTTTTTTTTTTTTTTTTTTTTTTTTTT MOQGAD      TELAPSE      172.15 TCPU      128.09
 TTTTTTTTTTTTTTTTTTTTTTTTTTTTTT SHELLXN     TELAPSE      186.43 TCPU      141.93
 TTTTTTTTTTTTTTTTTTTTTTTTTTTTTT MONMO3      TELAPSE      188.60 TCPU      144.10
 NUMERICALLY INTEGRATED DENSITY    319.9998607750
 TTTTTTTTTTTTTTTTTTTTTTTTTTTTTT NUMDFT      TELAPSE      189.72 TCPU      145.21
 CYC   5 ETOT(AU) -2.057754480005E+03 DETOT -2.27E-03 tst  9.50E-06 PX  7.84E-03
 TTTTTTTTTTTTTTTTTTTTTTTTTTTTTT DIIS        TELAPSE      189.82 TCPU      145.31
 DIIS TEST: 0.17622E-02 AT SCF   CYCLE   5 - DIIS ACTIVE - HISTORY:     5 CYCLES
 TTTTTTTTTTTTTTTTTTTTTTTTTTTTTT FDIK        TELAPSE      193.40 TCPU      148.78
 INSULATING STATE
 TOP OF VALENCE BANDS -    BAND    160; K   10; EIG -2.4695680E-01 AU
 TOP OF VALENCE BANDS -    BAND    160; K    1; EIG -2.4713149E-01 AU
 BOTTOM OF VIRTUAL BANDS - BAND    161; K   16; EIG -9.8607437E-03 AU
 INDIRECT ENERGY BAND GAP:   6.4517 eV
 BOTTOM OF VIRTUAL BANDS - BAND    161; K    1; EIG -5.1194082E-03 AU
 TTTTTTTTTTTTTTTTTTTTTTTTTTTTTT PDIG        TELAPSE      194.13 TCPU      149.52
 TTTTTTTTTTTTTTTTTTTTTTTTTTTTTT MOQGAD      TELAPSE      194.14 TCPU      149.53
 TTTTTTTTTTTTTTTTTTTTTTTTTTTTTT SHELLXN     TELAPSE      208.29 TCPU      163.14
 TTTTTTTTTTTTTTTTTTTTTTTTTTTTTT MONMO3      TELAPSE      210.04 TCPU      164.88
 NUMERICALLY INTEGRATED DENSITY    319.9998606641
 TTTTTTTTTTTTTTTTTTTTTTTTTTTTTT NUMDFT      TELAPSE      211.12 TCPU      165.96
 CYC   6 ETOT(AU) -2.057754760103E+03 DETOT -2.80E-04 tst  2.30E-06 PX  1.99E-03
 TTTTTTTTTTTTTTTTTTTTTTTTTTTTTT DIIS        TELAPSE      211.20 TCPU      166.04
 DIIS TEST: 0.21683E-03 AT SCF   CYCLE   6 - DIIS ACTIVE - HISTORY:     6 CYCLES
 TTTTTTTTTTTTTTTTTTTTTTTTTTTTTT FDIK        TELAPSE      213.91 TCPU      168.65
 INSULATING STATE
 TOP OF VALENCE BANDS -    BAND    160; K   10; EIG -2.4695507E-01 AU
 TOP OF VALENCE BANDS -    BAND    160; K    1; EIG -2.4711806E-01 AU
 BOTTOM OF VIRTUAL BANDS - BAND    161; K   16; EIG -9.9239188E-03 AU
 INDIRECT ENERGY BAND GAP:   6.4499 eV
 BOTTOM OF VIRTUAL BANDS - BAND    161; K    1; EIG -5.1488646E-03 AU
 TTTTTTTTTTTTTTTTTTTTTTTTTTTTTT PDIG        TELAPSE      214.64 TCPU      169.38
 TTTTTTTTTTTTTTTTTTTTTTTTTTTTTT MOQGAD      TELAPSE      214.65 TCPU      169.39
 TTTTTTTTTTTTTTTTTTTTTTTTTTTTTT SHELLXN     TELAPSE      228.66 TCPU      182.86
 TTTTTTTTTTTTTTTTTTTTTTTTTTTTTT MONMO3      TELAPSE      230.75 TCPU      184.95
 NUMERICALLY INTEGRATED DENSITY    319.9998606146
 TTTTTTTTTTTTTTTTTTTTTTTTTTTTTT NUMDFT      TELAPSE      231.71 TCPU      185.90
 CYC   7 ETOT(AU) -2.057754789764E+03 DETOT -2.97E-05 tst  1.08E-06 PX  1.06E-03
 TTTTTTTTTTTTTTTTTTTTTTTTTTTTTT DIIS        TELAPSE      231.78 TCPU      185.98
 DIIS TEST: 0.87073E-04 AT SCF   CYCLE   7 - DIIS ACTIVE - HISTORY:     7 CYCLES
 TTTTTTTTTTTTTTTTTTTTTTTTTTTTTT FDIK        TELAPSE      234.75 TCPU      188.83
 INSULATING STATE
 TOP OF VALENCE BANDS -    BAND    160; K   10; EIG -2.4703471E-01 AU
 TOP OF VALENCE BANDS -    BAND    160; K    1; EIG -2.4720527E-01 AU
 BOTTOM OF VIRTUAL BANDS - BAND    161; K   16; EIG -9.9352949E-03 AU
 INDIRECT ENERGY BAND GAP:   6.4518 eV
 BOTTOM OF VIRTUAL BANDS - BAND    161; K    1; EIG -5.2591515E-03 AU
 TTTTTTTTTTTTTTTTTTTTTTTTTTTTTT PDIG        TELAPSE      235.51 TCPU      189.58
 TTTTTTTTTTTTTTTTTTTTTTTTTTTTTT MOQGAD      TELAPSE      235.52 TCPU      189.59
 TTTTTTTTTTTTTTTTTTTTTTTTTTTTTT SHELLXN     TELAPSE      249.64 TCPU      203.17
 TTTTTTTTTTTTTTTTTTTTTTTTTTTTTT MONMO3      TELAPSE      251.86 TCPU      205.38
 NUMERICALLY INTEGRATED DENSITY    319.9998606417
 TTTTTTTTTTTTTTTTTTTTTTTTTTTTTT NUMDFT      TELAPSE      253.03 TCPU      206.55
 CYC   8 ETOT(AU) -2.057754810625E+03 DETOT -2.09E-05 tst  2.47E-07 PX  6.14E-04
 TTTTTTTTTTTTTTTTTTTTTTTTTTTTTT DIIS        TELAPSE      253.13 TCPU      206.65
 DIIS TEST: 0.44493E-05 AT SCF   CYCLE   8 - DIIS ACTIVE - HISTORY:     8 CYCLES
 TTTTTTTTTTTTTTTTTTTTTTTTTTTTTT FDIK        TELAPSE      256.13 TCPU      209.53
 INSULATING STATE
 TOP OF VALENCE BANDS -    BAND    160; K   10; EIG -2.4702221E-01 AU
 TOP OF VALENCE BANDS -    BAND    160; K    1; EIG -2.4719067E-01 AU
 BOTTOM OF VIRTUAL BANDS - BAND    161; K   16; EIG -9.9324676E-03 AU
 INDIRECT ENERGY BAND GAP:   6.4515 eV
 BOTTOM OF VIRTUAL BANDS - BAND    161; K    1; EIG -5.2227101E-03 AU
 TTTTTTTTTTTTTTTTTTTTTTTTTTTTTT PDIG        TELAPSE      256.88 TCPU      210.27
 TTTTTTTTTTTTTTTTTTTTTTTTTTTTTT MOQGAD      TELAPSE      256.89 TCPU      210.28
 TTTTTTTTTTTTTTTTTTTTTTTTTTTTTT SHELLXN     TELAPSE      271.01 TCPU      223.92
 TTTTTTTTTTTTTTTTTTTTTTTTTTTTTT MONMO3      TELAPSE      273.10 TCPU      226.00
 NUMERICALLY INTEGRATED DENSITY    319.9998606397
 TTTTTTTTTTTTTTTTTTTTTTTTTTTTTT NUMDFT      TELAPSE      274.26 TCPU      227.15
 CYC   9 ETOT(AU) -2.057754811590E+03 DETOT -9.64E-07 tst  9.58E-09 PX  1.22E-04
 TTTTTTTTTTTTTTTTTTTTTTTTTTTTTT DIIS        TELAPSE      274.38 TCPU      227.27
 DIIS TEST: 0.43747E-06 AT SCF   CYCLE   9 - DIIS ACTIVE - HISTORY:     9 CYCLES
 TTTTTTTTTTTTTTTTTTTTTTTTTTTTTT FDIK        TELAPSE      277.53 TCPU      230.34
 INSULATING STATE
 TOP OF VALENCE BANDS -    BAND    160; K   10; EIG -2.4701856E-01 AU
 TOP OF VALENCE BANDS -    BAND    160; K    1; EIG -2.4718788E-01 AU
 BOTTOM OF VIRTUAL BANDS - BAND    161; K   16; EIG -9.9400579E-03 AU
 INDIRECT ENERGY BAND GAP:   6.4512 eV
 BOTTOM OF VIRTUAL BANDS - BAND    161; K    1; EIG -5.2209764E-03 AU
 TTTTTTTTTTTTTTTTTTTTTTTTTTTTTT PDIG        TELAPSE      278.28 TCPU      231.08
 TTTTTTTTTTTTTTTTTTTTTTTTTTTTTT MOQGAD      TELAPSE      278.29 TCPU      231.09
 TTTTTTTTTTTTTTTTTTTTTTTTTTTTTT SHELLXN     TELAPSE      292.63 TCPU      244.61
 TTTTTTTTTTTTTTTTTTTTTTTTTTTTTT MONMO3      TELAPSE      294.67 TCPU      246.64
 NUMERICALLY INTEGRATED DENSITY    319.9998606378
 TTTTTTTTTTTTTTTTTTTTTTTTTTTTTT NUMDFT      TELAPSE      295.80 TCPU      247.77
 CYC  10 ETOT(AU) -2.057754811647E+03 DETOT -5.78E-08 tst  3.47E-10 PX  6.16E-05
 TTTTTTTTTTTTTTTTTTTTTTTTTTTTTT DIIS        TELAPSE      295.89 TCPU      247.86
 DIIS TEST: 0.79851E-07 AT SCF   CYCLE  10 - DIIS ACTIVE - HISTORY:    10 CYCLES
 TTTTTTTTTTTTTTTTTTTTTTTTTTTTTT FDIK        TELAPSE      299.20 TCPU      251.03
 INSULATING STATE
 TOP OF VALENCE BANDS -    BAND    160; K   10; EIG -2.4702263E-01 AU
 TOP OF VALENCE BANDS -    BAND    160; K    1; EIG -2.4719157E-01 AU
 BOTTOM OF VIRTUAL BANDS - BAND    161; K   16; EIG -9.9345312E-03 AU
 INDIRECT ENERGY BAND GAP:   6.4515 eV
 BOTTOM OF VIRTUAL BANDS - BAND    161; K    1; EIG -5.2253042E-03 AU
 TTTTTTTTTTTTTTTTTTTTTTTTTTTTTT PDIG        TELAPSE      299.95 TCPU      251.78
 TTTTTTTTTTTTTTTTTTTTTTTTTTTTTT MOQGAD      TELAPSE      299.96 TCPU      251.79
 TTTTTTTTTTTTTTTTTTTTTTTTTTTTTT SHELLXN     TELAPSE      313.95 TCPU      265.28
 TTTTTTTTTTTTTTTTTTTTTTTTTTTTTT MONMO3      TELAPSE      316.23 TCPU      267.55
 NUMERICALLY INTEGRATED DENSITY    319.9998606388
 TTTTTTTTTTTTTTTTTTTTTTTTTTTTTT NUMDFT      TELAPSE      317.19 TCPU      268.51
 CYC  11 ETOT(AU) -2.057754811704E+03 DETOT -5.69E-08 tst  7.89E-11 PX  3.26E-05
 TTTTTTTTTTTTTTTTTTTTTTTTTTTTTT DIIS        TELAPSE      317.28 TCPU      268.60
 DIIS TEST: 0.11941E-07 AT SCF   CYCLE  11 - DIIS ACTIVE - HISTORY:    11 CYCLES
 TTTTTTTTTTTTTTTTTTTTTTTTTTTTTT FDIK        TELAPSE      320.48 TCPU      271.72
 INSULATING STATE
 TOP OF VALENCE BANDS -    BAND    160; K   10; EIG -2.4702094E-01 AU
 TOP OF VALENCE BANDS -    BAND    160; K    1; EIG -2.4719002E-01 AU
 BOTTOM OF VIRTUAL BANDS - BAND    161; K   16; EIG -9.9365580E-03 AU
 INDIRECT ENERGY BAND GAP:   6.4514 eV
 BOTTOM OF VIRTUAL BANDS - BAND    161; K    1; EIG -5.2235542E-03 AU
 TTTTTTTTTTTTTTTTTTTTTTTTTTTTTT PDIG        TELAPSE      321.22 TCPU      272.46
 TTTTTTTTTTTTTTTTTTTTTTTTTTTTTT MOQGAD      TELAPSE      321.24 TCPU      272.47
 TTTTTTTTTTTTTTTTTTTTTTTTTTTTTT SHELLXN     TELAPSE      335.43 TCPU      286.07
 TTTTTTTTTTTTTTTTTTTTTTTTTTTTTT MONMO3      TELAPSE      337.62 TCPU      288.25
 NUMERICALLY INTEGRATED DENSITY    319.9998606388
 TTTTTTTTTTTTTTTTTTTTTTTTTTTTTT NUMDFT      TELAPSE      338.75 TCPU      289.38
 CYC  12 ETOT(AU) -2.057754811692E+03 DETOT  1.25E-08 tst  1.36E-11 PX  9.97E-06
 TTTTTTTTTTTTTTTTTTTTTTTTTTTTTT DIIS        TELAPSE      338.85 TCPU      289.48
 DIIS TEST: 0.59296E-09 AT SCF   CYCLE  12 - DIIS ACTIVE - HISTORY:    12 CYCLES
 TTTTTTTTTTTTTTTTTTTTTTTTTTTTTT FDIK        TELAPSE      342.16 TCPU      292.69
 INSULATING STATE
 TOP OF VALENCE BANDS -    BAND    160; K   10; EIG -2.4702092E-01 AU
 TOP OF VALENCE BANDS -    BAND    160; K    1; EIG -2.4718998E-01 AU
 BOTTOM OF VIRTUAL BANDS - BAND    161; K   16; EIG -9.9360047E-03 AU
 INDIRECT ENERGY BAND GAP:   6.4514 eV
 BOTTOM OF VIRTUAL BANDS - BAND    161; K    1; EIG -5.2233349E-03 AU
 TTTTTTTTTTTTTTTTTTTTTTTTTTTTTT PDIG        TELAPSE      342.91 TCPU      293.44
 TTTTTTTTTTTTTTTTTTTTTTTTTTTTTT MOQGAD      TELAPSE      342.92 TCPU      293.45
 TTTTTTTTTTTTTTTTTTTTTTTTTTTTTT SHELLXN     TELAPSE      357.06 TCPU      307.04
 TTTTTTTTTTTTTTTTTTTTTTTTTTTTTT MONMO3      TELAPSE      359.16 TCPU      309.13
 NUMERICALLY INTEGRATED DENSITY    319.9998606386
 TTTTTTTTTTTTTTTTTTTTTTTTTTTTTT NUMDFT      TELAPSE      360.12 TCPU      310.09
 CYC  13 ETOT(AU) -2.057754811694E+03 DETOT -2.21E-09 tst  3.89E-13 PX  1.59E-06
 TTTTTTTTTTTTTTTTTTTTTTTTTTTTTT DIIS        TELAPSE      360.29 TCPU      310.26
 DIIS TEST: 0.69804E-10 AT SCF   CYCLE  13 - DIIS ACTIVE - HISTORY:    13 CYCLES
 TTTTTTTTTTTTTTTTTTTTTTTTTTTTTT FDIK        TELAPSE      362.65 TCPU      312.52
 INSULATING STATE
 TOP OF VALENCE BANDS -    BAND    160; K   10; EIG -2.4702090E-01 AU
 TOP OF VALENCE BANDS -    BAND    160; K    1; EIG -2.4718997E-01 AU
 BOTTOM OF VIRTUAL BANDS - BAND    161; K   16; EIG -9.9360280E-03 AU
 INDIRECT ENERGY BAND GAP:   6.4514 eV
 BOTTOM OF VIRTUAL BANDS - BAND    161; K    1; EIG -5.2234254E-03 AU
 TTTTTTTTTTTTTTTTTTTTTTTTTTTTTT PDIG        TELAPSE      363.41 TCPU      313.27
 TTTTTTTTTTTTTTTTTTTTTTTTTTTTTT MOQGAD      TELAPSE      363.42 TCPU      313.28
 TTTTTTTTTTTTTTTTTTTTTTTTTTTTTT SHELLXN     TELAPSE      377.55 TCPU      326.89
 TTTTTTTTTTTTTTTTTTTTTTTTTTTTTT MONMO3      TELAPSE      379.71 TCPU      329.03
[...]
            Y     0.0002    0.0001   -0.0000   -0.0000    0.0000    0.0000
            Z     0.0001    0.0001   -0.0000   -0.0000    0.0000    0.0000
 AT.  22 C  X    -0.0001    0.0000   -0.0000    0.0000   -0.0000   -0.0000
            Y     0.0002   -0.0001    0.0000   -0.0000   -0.0000    0.0000
            Z    -0.0001    0.0001   -0.0000    0.0000    0.0000   -0.0000
 AT.  23 C  X     0.0001   -0.0000   -0.0000    0.0000    0.0000    0.0000
            Y     0.0002   -0.0001   -0.0000    0.0000   -0.0000    0.0000
            Z     0.0001   -0.0001   -0.0000    0.0000   -0.0000    0.0000
 AT.  24 C  X    -0.0001   -0.0000   -0.0000   -0.0000    0.0000   -0.0000
            Y     0.0002    0.0001    0.0000    0.0000    0.0000    0.0000
            Z    -0.0001   -0.0001   -0.0000   -0.0000   -0.0000   -0.0000
 AT.  25 C  X     0.0000    0.0000    0.0001    0.0000   -0.0001   -0.0000
            Y    -0.0002   -0.0001    0.0002    0.0002   -0.0001   -0.0001
            Z    -0.0002   -0.0001    0.0002    0.0002   -0.0001   -0.0001
 AT.  26 C  X    -0.0000    0.0000    0.0001   -0.0000   -0.0001    0.0000
            Y    -0.0002    0.0001   -0.0002    0.0002    0.0001   -0.0001
            Z     0.0002   -0.0001    0.0002   -0.0002   -0.0001    0.0001
 AT.  27 C  X     0.0000   -0.0000    0.0001   -0.0000    0.0001   -0.0000
            Y    -0.0002    0.0001    0.0002   -0.0002    0.0001   -0.0001
            Z    -0.0002    0.0001    0.0002   -0.0002    0.0001   -0.0001
 AT.  28 C  X    -0.0000   -0.0000    0.0001    0.0000    0.0001    0.0000
            Y    -0.0002   -0.0001   -0.0002   -0.0002   -0.0001   -0.0001
            Z     0.0002    0.0001    0.0002    0.0002    0.0001    0.0001
 AT.  29 C  X     0.0001   -0.0000    0.0000    0.0000    0.0000    0.0000
            Y     0.0001    0.0001   -0.0000   -0.0000    0.0000    0.0001
            Z     0.0001    0.0001   -0.0000   -0.0000    0.0000    0.0000
 AT.  30 C  X    -0.0001   -0.0000    0.0000   -0.0000    0.0000   -0.0000
            Y     0.0001   -0.0001    0.0000   -0.0000   -0.0000    0.0001
            Z    -0.0001    0.0001   -0.0000    0.0000    0.0000   -0.0000
 AT.  31 C  X     0.0001    0.0000    0.0000   -0.0000   -0.0000    0.0000
            Y     0.0001   -0.0001   -0.0000    0.0000   -0.0000    0.0001
            Z     0.0001   -0.0001   -0.0000    0.0000   -0.0000    0.0000
 AT.  32 C  X    -0.0001    0.0000    0.0000    0.0000   -0.0000   -0.0000
            Y     0.0001    0.0001    0.0000    0.0000    0.0000    0.0001
            Z    -0.0001   -0.0001   -0.0000   -0.0000   -0.0000   -0.0000
 AT.  33 C  X     0.0000   -0.0000   -0.0000   -0.0000   -0.0000   -0.0000
            Y    -0.0000   -0.0000    0.0000    0.0000   -0.0000   -0.0000
            Z    -0.0000    0.0000    0.0000   -0.0000   -0.0000   -0.0000
 AT.  34 C  X    -0.0000   -0.0000   -0.0000    0.0000   -0.0000    0.0000
            Y    -0.0000    0.0000   -0.0000    0.0000    0.0000   -0.0000
            Z     0.0000    0.0000    0.0000    0.0000   -0.0000    0.0000
 AT.  35 C  X     0.0000    0.0000   -0.0000    0.0000    0.0000   -0.0000
            Y    -0.0000    0.0000    0.0000   -0.0000    0.0000   -0.0000
            Z    -0.0000   -0.0000    0.0000    0.0000    0.0000   -0.0000
 AT.  36 C  X    -0.0000    0.0000   -0.0000   -0.0000    0.0000    0.0000
            Y    -0.0000   -0.0000   -0.0000   -0.0000   -0.0000   -0.0000
            Z     0.0000   -0.0000    0.0000   -0.0000    0.0000    0.0000
 AT.  37 C  X     0.0008    0.0008    0.0000    0.0001    0.0000    0.0000
            Y    -0.0001   -0.0001    0.0000    0.0000   -0.0000   -0.0000
            Z    -0.0002   -0.0003    0.0000    0.0000   -0.0000   -0.0000
 AT.  38 C  X    -0.0008    0.0008    0.0000   -0.0001    0.0000   -0.0000
            Y    -0.0001    0.0001   -0.0000    0.0000    0.0000   -0.0000
            Z     0.0002   -0.0003    0.0000   -0.0000   -0.0000    0.0000
 AT.  39 C  X     0.0008   -0.0008    0.0000   -0.0001   -0.0000    0.0000
            Y    -0.0001    0.0001    0.0000   -0.0000    0.0000   -0.0000
            Z    -0.0002    0.0003    0.0000   -0.0000    0.0000   -0.0000
 AT.  40 C  X    -0.0008   -0.0008    0.0000    0.0001   -0.0000   -0.0000
            Y    -0.0001   -0.0001   -0.0000   -0.0000   -0.0000   -0.0000
            Z     0.0002    0.0003    0.0000    0.0000    0.0000    0.0000
 AT.  41 C  X     0.0001    0.0001   -0.0000   -0.0000   -0.0000   -0.0000
            Y    -0.0000    0.0002    0.0000   -0.0000    0.0000   -0.0000
            Z     0.0000    0.0000   -0.0000   -0.0000   -0.0000   -0.0000
 AT.  42 C  X    -0.0001    0.0001   -0.0000    0.0000   -0.0000    0.0000
            Y    -0.0000   -0.0002   -0.0000   -0.0000   -0.0000   -0.0000
            Z    -0.0000    0.0000   -0.0000    0.0000   -0.0000    0.0000
 AT.  43 C  X     0.0001   -0.0001   -0.0000    0.0000    0.0000   -0.0000
            Y    -0.0000   -0.0002    0.0000    0.0000   -0.0000   -0.0000
            Z     0.0000   -0.0000   -0.0000    0.0000    0.0000   -0.0000
 AT.  44 C  X    -0.0001   -0.0001   -0.0000   -0.0000    0.0000    0.0000
            Y    -0.0000    0.0002   -0.0000    0.0000    0.0000   -0.0000
            Z    -0.0000   -0.0000   -0.0000   -0.0000    0.0000    0.0000
 AT.  45 H  X    -0.0004   -0.0001   -0.0004    0.0001    0.0003   -0.0004
            Y    -0.0002   -0.0000   -0.0002    0.0001    0.0003   -0.0002
            Z     0.0003    0.0001    0.0000    0.0001    0.0001    0.0001
 AT.  46 H  X     0.0004   -0.0001   -0.0004   -0.0001    0.0003    0.0004
            Y    -0.0002    0.0000    0.0002    0.0001   -0.0003   -0.0002
            Z    -0.0003    0.0001    0.0000   -0.0001    0.0001   -0.0001
 AT.  47 H  X    -0.0004    0.0001   -0.0004   -0.0001   -0.0003   -0.0004
            Y    -0.0002    0.0000   -0.0002   -0.0001   -0.0003   -0.0002
            Z     0.0003   -0.0001    0.0000   -0.0001   -0.0001    0.0001
 AT.  48 H  X     0.0004    0.0001   -0.0004    0.0001   -0.0003    0.0004
            Y    -0.0002   -0.0000    0.0002   -0.0001    0.0003   -0.0002
            Z    -0.0003   -0.0001    0.0000    0.0001   -0.0001   -0.0001
 AT.  49 H  X    -0.0004    0.0004   -0.0000    0.0005    0.0003   -0.0003
            Y    -0.0003    0.0001   -0.0000   -0.0000    0.0000   -0.0000
            Z     0.0002   -0.0002   -0.0001   -0.0003   -0.0002    0.0000
 AT.  50 H  X     0.0004    0.0004   -0.0000   -0.0005    0.0003    0.0003
            Y    -0.0003   -0.0001    0.0000   -0.0000   -0.0000   -0.0000
            Z    -0.0002   -0.0002   -0.0001    0.0003   -0.0002   -0.0000
 AT.  51 H  X    -0.0004   -0.0004   -0.0000   -0.0005   -0.0003   -0.0003
            Y    -0.0003   -0.0001   -0.0000    0.0000   -0.0000   -0.0000
            Z     0.0002    0.0002   -0.0001    0.0003    0.0002    0.0000
 AT.  52 H  X     0.0004   -0.0004   -0.0000    0.0005   -0.0003    0.0003
            Y    -0.0003    0.0001    0.0000    0.0000    0.0000   -0.0000
            Z    -0.0002    0.0002   -0.0001   -0.0003    0.0002   -0.0000
 AT.  53 H  X    -0.0009   -0.0002    0.0000   -0.0001   -0.0000   -0.0003
            Y    -0.0007   -0.0002    0.0000   -0.0000   -0.0001   -0.0002
            Z    -0.0001    0.0001    0.0000   -0.0000    0.0000   -0.0001
 AT.  54 H  X     0.0009   -0.0002    0.0000    0.0001   -0.0000    0.0003
            Y    -0.0007    0.0002   -0.0000   -0.0000    0.0001   -0.0002
            Z     0.0001    0.0001    0.0000    0.0000    0.0000    0.0001
 AT.  55 H  X    -0.0009    0.0002    0.0000    0.0001    0.0000   -0.0003
            Y    -0.0007    0.0002    0.0000    0.0000    0.0001   -0.0002
            Z    -0.0001   -0.0001    0.0000    0.0000   -0.0000   -0.0001
 AT.  56 H  X     0.0009    0.0002    0.0000   -0.0001    0.0000    0.0003
            Y    -0.0007   -0.0002   -0.0000    0.0000   -0.0001   -0.0002
            Z     0.0001   -0.0001    0.0000   -0.0000   -0.0000    0.0001
 AT.  57 H  X    -0.0001    0.0004    0.0004    0.0002    0.0003    0.0000
            Y    -0.0001   -0.0001   -0.0001   -0.0000   -0.0000    0.0000
            Z     0.0001   -0.0005   -0.0003   -0.0003   -0.0002   -0.0000
 AT.  58 H  X     0.0001    0.0004    0.0004   -0.0002    0.0003   -0.0000
            Y    -0.0001    0.0001    0.0001   -0.0000    0.0000    0.0000
            Z    -0.0001   -0.0005   -0.0003    0.0003   -0.0002    0.0000
 AT.  59 H  X    -0.0001   -0.0004    0.0004   -0.0002   -0.0003    0.0000
            Y    -0.0001    0.0001   -0.0001    0.0000    0.0000    0.0000
            Z     0.0001    0.0005   -0.0003    0.0003    0.0002   -0.0000
 AT.  60 H  X     0.0001   -0.0004    0.0004    0.0002   -0.0003   -0.0000
            Y    -0.0001   -0.0001    0.0001    0.0000   -0.0000    0.0000
            Z    -0.0001    0.0005   -0.0003   -0.0003    0.0002    0.0000
 AT.  61 H  X     0.0794    0.0791   -0.0101   -0.0105    0.0132    0.0127
            Y     0.0340    0.0341   -0.0044   -0.0045    0.0057    0.0054
            Z     0.0206    0.0209   -0.0030   -0.0031    0.0039    0.0036
 AT.  62 H  X    -0.0794    0.0791   -0.0101    0.0105    0.0132   -0.0127
            Y     0.0340   -0.0341    0.0044   -0.0045   -0.0057    0.0054
            Z    -0.0206    0.0209   -0.0030    0.0031    0.0039   -0.0036
 AT.  63 H  X     0.0794   -0.0791   -0.0101    0.0105   -0.0132    0.0127
            Y     0.0340   -0.0341   -0.0044    0.0045   -0.0057    0.0054
            Z     0.0206   -0.0209   -0.0030    0.0031   -0.0039    0.0036
 AT.  64 H  X    -0.0794   -0.0791   -0.0101   -0.0105   -0.0132   -0.0127
            Y     0.0340    0.0341    0.0044    0.0045    0.0057    0.0054
            Z    -0.0206   -0.0209   -0.0030   -0.0031   -0.0039   -0.0036
 AT.  65 H  X    -0.0136   -0.0143    0.0806    0.0806    0.0801    0.0802
            Y     0.0022    0.0026   -0.0131   -0.0131   -0.0129   -0.0130
            Z     0.0047    0.0046   -0.0304   -0.0304   -0.0304   -0.0302
 AT.  66 H  X     0.0136   -0.0143    0.0806   -0.0806    0.0801   -0.0802
            Y     0.0022   -0.0026    0.0131   -0.0131    0.0129   -0.0130
            Z    -0.0047    0.0046   -0.0304    0.0304   -0.0304    0.0302
 AT.  67 H  X    -0.0136    0.0143    0.0806   -0.0806   -0.0801    0.0802
            Y     0.0022   -0.0026   -0.0131    0.0131    0.0129   -0.0130
            Z     0.0047   -0.0046   -0.0304    0.0304    0.0304   -0.0302
 AT.  68 H  X     0.0136    0.0143    0.0806    0.0806   -0.0801   -0.0802
            Y     0.0022    0.0026    0.0131    0.0131   -0.0129   -0.0130
            Z    -0.0047   -0.0046   -0.0304   -0.0304    0.0304    0.0302
 AT.  69 H  X    -0.0005   -0.0003    0.0001   -0.0000    0.0000   -0.0000
            Y     0.0002   -0.0001   -0.0000    0.0000   -0.0001    0.0001
            Z    -0.0007   -0.0004    0.0002    0.0001    0.0002    0.0001
 AT.  70 H  X     0.0005   -0.0003    0.0001    0.0000    0.0000    0.0000
            Y     0.0002    0.0001    0.0000    0.0000    0.0001    0.0001
            Z     0.0007   -0.0004    0.0002   -0.0001    0.0002   -0.0001
 AT.  71 H  X    -0.0005    0.0003    0.0001    0.0000   -0.0000   -0.0000
            Y     0.0002    0.0001   -0.0000   -0.0000    0.0001    0.0001
            Z    -0.0007    0.0004    0.0002   -0.0001   -0.0002    0.0001
 AT.  72 H  X     0.0005    0.0003    0.0001   -0.0000   -0.0000    0.0000
            Y     0.0002   -0.0001    0.0000   -0.0000   -0.0001    0.0001
            Z     0.0007    0.0004    0.0002    0.0001   -0.0002   -0.0001
 AT.  73 H  X    -0.0010   -0.0008    0.0006    0.0006    0.0007    0.0005
            Y     0.0000    0.0002    0.0002    0.0002    0.0002    0.0002
            Z     0.0005    0.0004    0.0001    0.0001    0.0001    0.0002
 AT.  74 H  X     0.0010   -0.0008    0.0006   -0.0006    0.0007   -0.0005
            Y     0.0000   -0.0002   -0.0002    0.0002   -0.0002    0.0002
            Z    -0.0005    0.0004    0.0001   -0.0001    0.0001   -0.0002
 AT.  75 H  X    -0.0010    0.0008    0.0006   -0.0006   -0.0007    0.0005
            Y     0.0000   -0.0002    0.0002   -0.0002   -0.0002    0.0002
            Z     0.0005   -0.0004    0.0001   -0.0001   -0.0001    0.0002
 AT.  76 H  X     0.0010    0.0008    0.0006    0.0006   -0.0007   -0.0005
            Y     0.0000    0.0002   -0.0002   -0.0002    0.0002    0.0002
            Z    -0.0005   -0.0004    0.0001    0.0001   -0.0001   -0.0002
 AT.  77 H  X     0.0001   -0.0005   -0.0001    0.0000   -0.0002    0.0001
            Y     0.0005   -0.0017   -0.0002    0.0002   -0.0004    0.0002
            Z     0.0001    0.0002    0.0001    0.0000    0.0001    0.0001
 AT.  78 H  X    -0.0001   -0.0005   -0.0001   -0.0000   -0.0002   -0.0001
            Y     0.0005    0.0017    0.0002    0.0002    0.0004    0.0002
            Z    -0.0001    0.0002    0.0001   -0.0000    0.0001   -0.0001
 AT.  79 H  X     0.0001    0.0005   -0.0001   -0.0000    0.0002    0.0001
            Y     0.0005    0.0017   -0.0002   -0.0002    0.0004    0.0002
            Z     0.0001   -0.0002    0.0001   -0.0000   -0.0001    0.0001
 AT.  80 H  X    -0.0001    0.0005   -0.0001    0.0000    0.0002   -0.0001
            Y     0.0005   -0.0017    0.0002   -0.0002   -0.0004    0.0002
            Z    -0.0001   -0.0002    0.0001    0.0000   -0.0001   -0.0001

 *******************************************************************************

 VIBRATIONAL TEMPERATURES (K) [MODE NUMBER;IRREP]

 TO MODES
    49.5 [   4;Ag ]    59.1 [   5;Bg ]    73.7 [   6;Au ]    78.9 [   7;Ag ]
    81.5 [   8;Bu ]    89.8 [   9;Au ]   102.4 [  10;Ag ]   106.6 [  11;Au ]
   107.1 [  12;Bg ]   113.2 [  13;Bu ]   122.7 [  14;Bg ]   122.8 [  15;Ag ]
   133.7 [  16;Bg ]   135.9 [  17;Au ]   143.7 [  18;Bg ]   144.4 [  19;Ag ]
   150.2 [  20;Au ]   151.0 [  21;Bu ]   152.9 [  22;Ag ]   159.1 [  23;Bu ]
   159.6 [  24;Bg ]   167.3 [  25;Au ]   168.2 [  26;Ag ]   172.8 [  27;Bu ]
   181.3 [  28;Bg ]   194.7 [  29;Bu ]   208.4 [  30;Au ]   210.8 [  31;Bg ]
   222.3 [  32;Ag ]   229.7 [  33;Bu ]   231.7 [  34;Bg ]   233.0 [  35;Ag ]
   234.4 [  36;Au ]   261.6 [  37;Au ]   264.8 [  38;Bg ]   289.1 [  39;Ag ]
   296.8 [  40;Bu ]   325.3 [  41;Ag ]   330.8 [  42;Bu ]   333.0 [  43;Bg ]
   336.8 [  44;Au ]   493.0 [  45;Au ]   499.5 [  46;Bg ]   499.9 [  47;Ag ]
   502.4 [  48;Bu ]   517.0 [  49;Ag ]   518.9 [  50;Bu ]   553.0 [  51;Bg ]
   555.0 [  52;Au ]   596.1 [  53;Au ]   597.2 [  54;Bg ]   600.4 [  55;Bu ]
   602.1 [  56;Ag ]   625.4 [  57;Ag ]   628.9 [  58;Bg ]   629.8 [  59;Bu ]
   632.5 [  60;Au ]   697.4 [  61;Bg ]   700.9 [  62;Au ]   711.9 [  63;Ag ]
   712.2 [  64;Bu ]   758.9 [  65;Bu ]   759.9 [  66;Au ]   760.4 [  67;Ag ]
   760.8 [  68;Bg ]   794.5 [  69;Ag ]   802.8 [  70;Bu ]   805.8 [  71;Au ]
   806.2 [  72;Bg ]   922.8 [  73;Ag ]   924.4 [  74;Au ]   925.5 [  75;Bu ]
   928.5 [  76;Bg ]   943.2 [  77;Bg ]   946.2 [  78;Au ]   949.4 [  79;Bu ]
   953.6 [  80;Ag ]   984.2 [  81;Bu ]   985.1 [  82;Au ]   985.9 [  83;Ag ]
   986.1 [  84;Bg ]  1077.3 [  85;Au ]  1078.4 [  86;Ag ]  1080.7 [  87;Bg ]
  1080.9 [  88;Bu ]  1087.8 [  89;Au ]  1090.8 [  90;Ag ]  1095.5 [  91;Bu ]
  1095.6 [  92;Bg ]  1106.5 [  93;Ag ]  1113.0 [  94;Au ]  1126.4 [  95;Bu ]
  1135.8 [  96;Bg ]  1214.8 [  97;Ag ]  1216.4 [  98;Bu ]  1218.2 [  99;Bg ]
  1219.3 [ 100;Au ]  1229.2 [ 101;Bg ]  1238.2 [ 102;Au ]  1242.9 [ 103;Bu ]
  1245.7 [ 104;Ag ]  1268.6 [ 105;Ag ]  1270.8 [ 106;Bg ]  1273.3 [ 107;Bu ]
  1277.6 [ 108;Au ]  1308.4 [ 109;Bu ]  1309.2 [ 110;Ag ]  1311.7 [ 111;Au ]
  1312.2 [ 112;Bg ]  1400.1 [ 113;Bg ]  1402.9 [ 114;Au ]  1405.4 [ 115;Ag ]
  1409.6 [ 116;Bu ]  1435.1 [ 117;Ag ]  1444.3 [ 118;Bg ]  1444.9 [ 119;Bu ]
  1454.2 [ 120;Au ]  1473.3 [ 121;Au ]  1474.7 [ 122;Bg ]  1475.7 [ 123;Ag ]
  1478.2 [ 124;Bu ]  1528.4 [ 125;Bu ]  1528.7 [ 126;Au ]  1529.2 [ 127;Ag ]
  1530.1 [ 128;Bg ]  1550.2 [ 129;Bg ]  1553.4 [ 130;Bu ]  1553.6 [ 131;Au ]
  1553.9 [ 132;Ag ]  1571.8 [ 133;Ag ]  1573.4 [ 134;Au ]  1576.1 [ 135;Bg ]
  1579.2 [ 136;Bu ]  1691.4 [ 137;Ag ]  1698.2 [ 138;Bg ]  1699.8 [ 139;Bu ]
  1703.6 [ 140;Au ]  1790.2 [ 141;Ag ]  1790.4 [ 142;Bg ]  1794.4 [ 143;Au ]
  1799.7 [ 144;Bu ]  1877.0 [ 145;Ag ]  1878.3 [ 146;Bg ]  1880.2 [ 147;Bu ]
  1883.9 [ 148;Au ]  1900.6 [ 149;Ag ]  1902.0 [ 150;Au ]  1902.9 [ 151;Bg ]
  1907.0 [ 152;Bu ]  1942.9 [ 153;Au ]  1943.2 [ 154;Bg ]  1949.3 [ 155;Ag ]
  1954.6 [ 156;Bu ]  1961.3 [ 157;Bg ]  1962.2 [ 158;Ag ]  1965.4 [ 159;Au ]
  1968.1 [ 160;Bu ]  2033.6 [ 161;Ag ]  2040.9 [ 162;Au ]  2044.4 [ 163;Bu ]
  2047.1 [ 164;Bg ]  2090.9 [ 165;Bu ]  2091.3 [ 166;Ag ]  2093.2 [ 167;Au ]
  2095.4 [ 168;Bg ]  2105.2 [ 169;Ag ]  2108.4 [ 170;Bu ]  2111.6 [ 171;Bg ]
  2113.9 [ 172;Au ]  2191.0 [ 173;Bu ]  2191.2 [ 174;Au ]  2193.0 [ 175;Ag ]
  2197.2 [ 176;Au ]  2198.1 [ 177;Bg ]  2200.6 [ 178;Bg ]  2207.0 [ 179;Bu ]
  2209.8 [ 180;Ag ]  2225.5 [ 181;Bu ]  2225.8 [ 182;Au ]  2234.4 [ 183;Ag ]
  2237.5 [ 184;Bg ]  2316.5 [ 185;Ag ]  2317.1 [ 186;Bu ]  2336.3 [ 187;Bg ]
  2336.3 [ 188;Au ]  2402.0 [ 189;Ag ]  2406.7 [ 190;Bu ]  2407.9 [ 191;Au ]
  2412.4 [ 192;Bg ]  2476.9 [ 193;Bu ]  2477.6 [ 194;Ag ]  2480.5 [ 195;Bg ]
  2481.5 [ 196;Au ]  2509.6 [ 197;Bg ]  2513.9 [ 198;Au ]  2515.8 [ 199;Ag ]
  2523.3 [ 200;Bu ]  2555.6 [ 201;Ag ]  2560.4 [ 202;Au ]  2563.2 [ 203;Bu ]
  2575.8 [ 204;Bg ]  4524.2 [ 205;Ag ]  4524.9 [ 206;Bu ]  4525.0 [ 207;Au ]
  4525.2 [ 208;Bg ]  4652.6 [ 209;Bu ]  4652.8 [ 210;Bg ]  4652.8 [ 211;Au ]
  4652.9 [ 212;Ag ]  4655.3 [ 213;Au ]  4655.8 [ 214;Ag ]  4656.2 [ 215;Bu ]
  4656.6 [ 216;Bg ]  4703.9 [ 217;Bu ]  4704.2 [ 218;Bg ]  4704.3 [ 219;Au ]
  4704.5 [ 220;Ag ]  4719.5 [ 221;Bu ]  4720.0 [ 222;Ag ]  4720.3 [ 223;Bg ]
  4721.0 [ 224;Au ]  4725.2 [ 225;Ag ]  4725.3 [ 226;Bg ]  4725.4 [ 227;Au ]
  4725.5 [ 228;Bu ]  4815.1 [ 229;Au ]  4815.1 [ 230;Bu ]  4822.6 [ 231;Bg ]
  4823.8 [ 232;Ag ]  4938.6 [ 233;Ag ]  4941.5 [ 234;Bu ]  4946.3 [ 235;Au ]
  4952.6 [ 236;Bg ]  5149.9 [ 237;Bu ]  5150.7 [ 238;Ag ]  5154.7 [ 239;Bg ]
  5154.7 [ 240;Au ]

 *******************************************************************************

 HARMONIC VIBRATIONAL CONTRIBUTIONS TO THERMODYNAMIC FUNCTIONS AT GIVEN
 TEMPERATURE AND PRESSURE:

 (EL = ELECTRONIC ENERGY
  E0 = ZERO-POINT ENERGY
  ET = THERMAL CONTRIBUTION TO THE VIBRATIONAL ENERGY
  PV = PRESSURE * VOLUME
  TS = TEMPERATURE * ENTROPY)

                          AU/CELL             EV/CELL                 KJ/MOL
 EL            :   -2057.686915559598  -55992.507576455653    -5402456.23545757
 E0            :       0.670005954735      18.231788914567        1759.10038625


 *******************************************************************************

 THERMODYNAMIC FUNCTIONS WITH VIBRATIONAL CONTRIBUTIONS

 AT (T =  298.15 K, P =   0.10132500E+00 MPA):

                          AU/CELL             EV/CELL                 KJ/MOL
 ET            :       0.040831798552       1.111089725297         107.20387199
 PV            :       0.000017530544       0.000477030356           0.04602644
 TS            :       0.080307302905       2.185272809177         210.84679406
 ET+PV-TS      :      -0.039457973810      -1.073706053524        -103.59689564
 EL+E0+ET+PV-TS:   -2057.056367578673  -55975.349493594607    -5400800.73196695

 OTHER THERMODYNAMIC FUNCTIONS:

                      mHARTREE/(CELL*K)     mEV/(CELL*K)              J/(MOL*K)
 ENTROPY       :       0.269352013769       7.329440916241         707.18361249
 HEAT CAPACITY :       0.253504784422       6.898215882635         665.57671770

 *******************************************************************************
 TTTTTTTTTTTTTTTTTTTTTTTTTTTTTT END         TELAPSE    80851.92 TCPU    49670.88
 EEEEEEEEEE TERMINATION  DATE 25 02 2022 TIME 16:05:51.9
NODE    0 CPU TIME =     49670.884
    TOTAL CPU TIME =   9693063.825

